scalar
part
         1
quad4
 5.11037e-07
 4.75004e-07
 4.38365e-07
 4.02808e-07
 3.69283e-07
 3.38251e-07
 3.09864e-07
 2.84091e-07
 2.60797e-07
 2.39797e-07
 2.20886e-07
 2.03859e-07
 1.88520e-07
 1.74685e-07
 1.62191e-07
 1.50888e-07
 1.40645e-07
 1.31343e-07
 1.22881e-07
 1.15167e-07
 6.11156e-07
 5.56791e-07
 5.04891e-07
 4.56890e-07
 4.13333e-07
 3.74256e-07
 3.39426e-07
 3.08485e-07
 2.81036e-07
 2.56682e-07
 2.35050e-07
 2.15806e-07
 1.98649e-07
 1.83318e-07
 1.69584e-07
 1.57250e-07
 1.46144e-07
 1.36117e-07
 1.27043e-07
 1.18809e-07
 7.30717e-07
 6.51029e-07
 5.79224e-07
 5.15749e-07
 4.60205e-07
 4.11833e-07
 3.69768e-07
 3.33166e-07
 3.01258e-07
 2.73368e-07
 2.48914e-07
 2.27400e-07
 2.08406e-07
 1.91578e-07
 1.76617e-07
 1.63269e-07
 1.51322e-07
 1.40593e-07
 1.30929e-07
 1.22198e-07
 8.70576e-07
 7.57031e-07
 6.60148e-07
 5.78101e-07
 5.08735e-07
 4.49994e-07
 4.00079e-07
 3.57477e-07
 3.20937e-07
 2.89437e-07
 2.62143e-07
 2.38375e-07
 2.17578e-07
 1.99294e-07
 1.83149e-07
 1.68833e-07
 1.56087e-07
 1.44695e-07
 1.34478e-07
 1.25283e-07
 1.02891e-06
 8.72138e-07
 7.45117e-07
 6.41801e-07
 5.57208e-07
 4.87403e-07
 4.29329e-07
 3.80626e-07
 3.39464e-07
 3.04418e-07
 2.74373e-07
 2.48447e-07
 2.25939e-07
 2.06288e-07
 1.89041e-07
 1.73828e-07
 1.60347e-07
 1.48350e-07
 1.37630e-07
 1.28014e-07
 1.19942e-06
 9.90970e-07
 8.29980e-07
 7.03769e-07
 6.03371e-07
 5.22412e-07
 4.56310e-07
 4.01721e-07
 3.56173e-07
 3.17810e-07
 2.85222e-07
 2.57322e-07
 2.33265e-07
 2.12385e-07
 1.94153e-07
 1.78145e-07
 1.64016e-07
 1.51487e-07
 1.40327e-07
 1.30345e-07
 1.36987e-06
 1.10507e-06
 9.09010e-07
 7.60118e-07
 6.44556e-07
 5.53168e-07
 4.79712e-07
 4.19824e-07
 3.70384e-07
 3.29112e-07
 2.94317e-07
 2.64720e-07
 2.39340e-07
 2.17419e-07
 1.98357e-07
 1.81682e-07
 1.67013e-07
 1.54042e-07
 1.42518e-07
 1.32234e-07
 1.52207e-06
 1.20347e-06
 9.75428e-07
 8.06537e-07
 6.77952e-07
 5.77789e-07
 4.98249e-07
 4.34038e-07
 3.81458e-07
 3.37863e-07
 3.01321e-07
 2.70388e-07
 2.43975e-07
 2.21244e-07
 2.01542e-07
 1.84353e-07
 1.69270e-07
 1.55961e-07
 1.44160e-07
 1.33647e-07
 1.63492e-06
 1.27455e-06
 1.02248e-06
 8.38930e-07
 7.00978e-07
 5.94599e-07
 5.10801e-07
 4.43595e-07
 3.88859e-07
 3.43681e-07
 3.05954e-07
 2.74123e-07
 2.47018e-07
 2.23746e-07
 2.03617e-07
 1.86089e-07
 1.70732e-07
 1.57201e-07
 1.45218e-07
 1.34555e-07
 1.69012e-06
 1.30876e-06
 1.04483e-06
 8.54160e-07
 7.11706e-07
 6.02367e-07
 5.16558e-07
 4.47948e-07
 3.92208e-07
 3.46297e-07
 3.08026e-07
 2.75783e-07
 2.48362e-07
 2.24846e-07
 2.04525e-07
 1.86844e-07
 1.71364e-07
 1.57734e-07
 1.45671e-07
 1.34941e-07
 1.67828e-06
 1.30129e-06
 1.03986e-06
 8.50690e-07
 7.09199e-07
 6.00501e-07
 5.15135e-07
 4.46839e-07
 3.91328e-07
 3.45588e-07
 3.07446e-07
 2.75303e-07
 2.47961e-07
 2.24507e-07
 2.04236e-07
 1.86596e-07
 1.71150e-07
 1.57548e-07
 1.45507e-07
 1.34798e-07
 1.60200e-06
 1.25343e-06
 1.00822e-06
 8.28901e-07
 6.93684e-07
 5.89143e-07
 5.06622e-07
 4.40328e-07
 3.86260e-07
 3.41582e-07
 3.04236e-07
 2.72699e-07
 2.45826e-07
 2.22739e-07
 2.02758e-07
 1.85351e-07
 1.70093e-07
 1.56645e-07
 1.44731e-07
 1.34126e-07
 1.47454e-06
 1.17199e-06
 9.53686e-07
 7.90991e-07
 6.66503e-07
 5.69143e-07
 4.91576e-07
 4.28791e-07
 3.77264e-07
 3.34462e-07
 2.98527e-07
 2.68068e-07
 2.42028e-07
 2.19595e-07
 2.00133e-07
 1.83141e-07
 1.68219e-07
 1.55045e-07
 1.43357e-07
 1.32939e-07
 1.31524e-06
 1.06736e-06
 8.82177e-07
 7.40494e-07
 6.29854e-07
 5.41915e-07
 4.70935e-07
 4.12863e-07
 3.64781e-07
 3.24543e-07
 2.90546e-07
 2.61574e-07
 2.36692e-07
 2.15169e-07
 1.96431e-07
 1.80021e-07
 1.65571e-07
 1.52783e-07
 1.41412e-07
 1.31258e-07
 1.14388e-06
 9.50861e-07
 8.00449e-07
 6.81599e-07
 5.86418e-07
 5.09225e-07
 4.45890e-07
 3.93370e-07
 3.49393e-07
 3.12241e-07
 2.80598e-07
 2.53445e-07
 2.29986e-07
 2.09590e-07
 1.91752e-07
 1.76069e-07
 1.62210e-07
 1.49906e-07
 1.38936e-07
 1.29115e-07
 9.76382e-07
 8.32486e-07
 7.14881e-07
 6.18464e-07
 5.38962e-07
 4.72953e-07
 4.17745e-07
 3.71230e-07
 3.31759e-07
 2.98035e-07
 2.69036e-07
 2.43946e-07
 2.22113e-07
 2.03012e-07
 1.86216e-07
 1.71377e-07
 1.58208e-07
 1.46473e-07
 1.35974e-07
 1.26547e-07
 8.22997e-07
 7.19609e-07
 6.30637e-07
 5.54688e-07
 4.90011e-07
 4.34887e-07
 3.87778e-07
 3.47369e-07
 3.12558e-07
 2.82432e-07
 2.56241e-07
 2.33364e-07
 2.13293e-07
 1.95606e-07
 1.79955e-07
 1.66051e-07
 1.53651e-07
 1.42552e-07
 1.32583e-07
 1.23599e-07
 6.88653e-07
 6.16729e-07
 5.51327e-07
 4.93030e-07
 4.41632e-07
 3.96566e-07
 3.57140e-07
 3.22650e-07
 2.92441e-07
 2.65925e-07
 2.42589e-07
 2.21991e-07
 2.03752e-07
 1.87551e-07
 1.73112e-07
 1.60204e-07
 1.48627e-07
 1.38214e-07
 1.28819e-07
 1.20319e-07
 5.74428e-07
 5.25900e-07
 4.79068e-07
 4.35350e-07
 3.95354e-07
 3.59210e-07
 3.26786e-07
 2.97819e-07
 2.71990e-07
 2.48968e-07
 2.28439e-07
 2.10109e-07
 1.93715e-07
 1.79023e-07
 1.65828e-07
 1.53949e-07
 1.43231e-07
 1.33536e-07
 1.24746e-07
 1.16758e-07
 4.79123e-07
 4.47456e-07
 4.14780e-07
 3.82706e-07
 3.52180e-07
 3.23695e-07
 2.97454e-07
 2.73480e-07
 2.51694e-07
 2.31958e-07
 2.14108e-07
 1.97973e-07
 1.83387e-07
 1.70190e-07
 1.58238e-07
 1.47398e-07
 1.37552e-07
 1.28592e-07
 1.20425e-07
 1.12966e-07
