# vtk DataFile Version 2.0
gauge_2
ASCII
DATASET POLYDATA
POINTS 117 double
0.2 0.0314993 0.005
0.2 0.0329993 0.005
0.2 0.0344993 0.005
0.2 0.0359992 0.005
0.2 0.0374992 0.005
0.2 0.0389992 0.005
0.2 0.0404991 0.005
0.2 0.0419991 0.005
0.2 0.0434991 0.005
0.2 0.044999 0.005
0.2 0.046499 0.005
0.2 0.047999 0.005
0.2 0.0511894 0.005
0.2 0.0543799 0.005
0.2 0.0575704 0.005
0.2 0.0607609 0.005
0.2 0.0639514 0.005
0.2 0.0671419 0.005
0.2 0.0703323 0.005
0.2 0.0735228 0.005
0.2 0.0767133 0.005
0.2 0.0799038 0.005
0.2 0.0830943 0.005
0.2 0.0862847 0.005
0.2 0.0894752 0.005
0.2 0.0926657 0.005
0.2 0.0958562 0.005
0.2 0.0990467 0.005
0.2 0.105428 0.005
0.2 0.111809 0.005
0.2 0.124571 0.005
0.2 0.137332 0.005
0.2 0.150094 0.005
0.2 0.162856 0.005
0.2 0.175618 0.005
0.2 0.18838 0.005
0.2 0.201142 0.005
0.2 0.213904 0.005
0.2 0.226666 0.005
0.2 0.239428 0.005
0.2 0.25219 0.005
0.2 0.264952 0.005
0.2 0.277714 0.005
0.2 0.284095 0.005
0.2 0.287285 0.005
0.2 0.290476 0.005
0.2 0.293666 0.005
0.2 0.296857 0.005
0.2 0.300047 0.005
0.2 0.303238 0.005
0.2 0.306428 0.005
0.2 0.309619 0.005
0.2 0.312809 0.005
0.2 0.315999 0.005
0.2 0.31919 0.005
0.2 0.32238 0.005
0.2 0.328761 0.005
0.2 0.341523 0.005
0.2 0.354285 0.005
0.2 0.360666 0.005
0.2 0.367047 0.005
0.2 0.370238 0.005
0.2 0.373428 0.005
0.2 0.376619 0.005
0.2 0.379809 0.005
0.2 0.383 0.005
0.2 0.38619 0.005
0.2 0.389381 0.005
0.2 0.392571 0.005
0.2 0.395762 0.005
0.2 0.398952 0.005
0.2 0.402142 0.005
0.2 0.405333 0.005
0.2 0.408523 0.005
0.2 0.411714 0.005
0.2 0.414904 0.005
0.2 0.418095 0.005
0.2 0.421285 0.005
0.2 0.424476 0.005
0.2 0.427666 0.005
0.2 0.430857 0.005
0.2 0.434047 0.005
0.2 0.437238 0.005
0.2 0.440428 0.005
0.2 0.443619 0.005
0.2 0.446809 0.005
0.2 0.45 0.005
0.2 0.45319 0.005
0.2 0.456381 0.005
0.2 0.459571 0.005
0.2 0.462762 0.005
0.2 0.465952 0.005
0.2 0.469143 0.005
0.2 0.472333 0.005
0.2 0.475524 0.005
0.2 0.478714 0.005
0.2 0.481905 0.005
0.2 0.485095 0.005
0.2 0.488286 0.005
0.2 0.491476 0.005
0.2 0.494666 0.005
0.2 0.497857 0.005
0.2 0.501047 0.005
0.2 0.504238 0.005
0.2 0.507428 0.005
0.2 0.510619 0.005
0.2 0.513809 0.005
0.2 0.517 0.005
0.2 0.52019 0.005
0.2 0.523381 0.005
0.2 0.526571 0.005
0.2 0.529762 0.005
0.2 0.532952 0.005
0.2 0.536143 0.005
0.2 0.539333 0.005
0.2 0.545714 0.005
0.2 0.558476 0.005
POINT_DATA 117
 FIELD attributes 1
alpha.water 1 117 float
1 1 1 1 1 1 1 1 1 1 1 1 1 1 1 1 1 0.999987 0.999967 0.999935 1.00001 0.984809 0.893058 0.608246 0.28259 1.85213e-12 6.59801e-11 1.78894e-10 4.31216e-10 4.84782e-10 3.88216e-10 3.12727e-10 1.94435e-10 6.79289e-11 7.88711e-12 2.9269e-14 4.60473e-15 3.48841e-17 4.42486e-16 1.63161e-14 2.39704e-12 3.94749e-10 1.7797e-08 7.80771e-07 0.000123019 0.00165755 0.00877274 0.0045114 0.00412531 0.00224974 0.000138913 0.000466977 0.00083746 0.000574158 3.31694e-05 1.32247e-05 5.97196e-07 5.40931e-07 3.08806e-09 6.69141e-09 9.80746e-09 -0.000568939 7.98759e-05 0.000660902 0.00131264 0.00394774 0.000404605 0.000442662 0.00109301 0.000487964 0.00120356 0.00181176 0.00272519 0.00450568 0.0103467 0.0153999 0.0169273 0.0247911 0.0121532 0.00699935 0.00118804 -1.80976e-06 2.20388e-05 7.20653e-06 6.87507e-06 -0.000311092 0.000275615 0.00124831 0.00213758 0.00517737 0.00225826 0.00215341 0.00121275 0.000507658 0.000341859 0.000810758 0.00093314 0.000301913 0.00239156 0.00530232 0.00682459 0.0131716 0.00295601 0.000204834 0.000182694 0.000304295 0.000352905 0.000687533 0.000840297 0.000483551 0.00038846 0.000103473 1.82029e-07 1.6175e-07 1.92705e-11 7.92286e-16 -5.73659e-20
