# vtk DataFile Version 2.0
gauge_1
ASCII
DATASET POLYDATA
POINTS 6 double
0.02 0.201142 0.005
0.02 0.207523 0.005
0.02 0.213904 0.005
0.02 0.226666 0.005
0.02 0.239428 0.005
0.02 0.25219 0.005
POINT_DATA 6
 FIELD attributes 1
alpha.water 1 6 float
-3.18406e-13 -3.68843e-13 -3.69752e-13 -3.00934e-13 -2.44615e-13 -1.77217e-13
