scalar
part
         1
quad4
 3.95977e-07
 3.75824e-07
 3.53269e-07
 3.29933e-07
 3.06864e-07
 2.84698e-07
 2.63794e-07
 2.44323e-07
 2.26338e-07
 2.09815e-07
 1.94690e-07
 1.80874e-07
 1.68267e-07
 1.56768e-07
 1.46275e-07
 1.36697e-07
 1.27944e-07
 1.19936e-07
 1.12601e-07
 1.05873e-07
 4.82078e-07
 4.48013e-07
 4.13460e-07
 3.80017e-07
 3.48550e-07
 3.19461e-07
 2.92870e-07
 2.68732e-07
 2.46913e-07
 2.27235e-07
 2.09505e-07
 1.93531e-07
 1.79130e-07
 1.66131e-07
 1.54382e-07
 1.43744e-07
 1.34096e-07
 1.25328e-07
 1.17344e-07
 1.10060e-07
 5.86826e-07
 5.32935e-07
 4.82251e-07
 4.35851e-07
 3.94037e-07
 3.56697e-07
 3.23518e-07
 2.94103e-07
 2.68040e-07
 2.44932e-07
 2.24416e-07
 2.06165e-07
 1.89893e-07
 1.75350e-07
 1.62318e-07
 1.50609e-07
 1.40061e-07
 1.30534e-07
 1.21907e-07
 1.14076e-07
 7.12204e-07
 6.30962e-07
 5.59277e-07
 4.96785e-07
 4.42610e-07
 3.95729e-07
 3.55137e-07
 3.19923e-07
 2.89289e-07
 2.62551e-07
 2.39129e-07
 2.18536e-07
 2.00362e-07
 1.84263e-07
 1.69950e-07
 1.57180e-07
 1.45748e-07
 1.35480e-07
 1.26229e-07
 1.17867e-07
 8.58512e-07
 7.41078e-07
 6.43143e-07
 5.61439e-07
 4.93052e-07
 4.35536e-07
 3.86897e-07
 3.45525e-07
 3.10127e-07
 2.79665e-07
 2.53305e-07
 2.30371e-07
 2.10316e-07
 1.92693e-07
 1.77136e-07
 1.63342e-07
 1.51062e-07
 1.40087e-07
 1.30243e-07
 1.21381e-07
 1.02296e-06
 8.60167e-07
 7.31086e-07
 6.27560e-07
 5.43589e-07
 4.74748e-07
 4.17742e-07
 3.70096e-07
 3.29928e-07
 2.95792e-07
 2.66568e-07
 2.41376e-07
 2.19524e-07
 2.00457e-07
 1.83728e-07
 1.68977e-07
 1.55908e-07
 1.44278e-07
 1.33887e-07
 1.24565e-07
 1.19818e-06
 9.82414e-07
 8.18766e-07
 6.91970e-07
 5.91909e-07
 5.11675e-07
 4.46434e-07
 3.92721e-07
 3.48007e-07
 3.10414e-07
 2.78524e-07
 2.51250e-07
 2.27752e-07
 2.07371e-07
 1.89582e-07
 1.73969e-07
 1.60193e-07
 1.47978e-07
 1.37099e-07
 1.27370e-07
 1.37125e-06
 1.09914e-06
 9.00346e-07
 7.50712e-07
 6.35290e-07
 5.44422e-07
 4.71629e-07
 4.12434e-07
 3.63663e-07
 3.23014e-07
 2.88785e-07
 2.59698e-07
 2.34775e-07
 2.13260e-07
 1.94562e-07
 1.78211e-07
 1.63831e-07
 1.51118e-07
 1.39825e-07
 1.29749e-07
 1.52410e-06
 1.19939e-06
 9.69006e-07
 7.99418e-07
 6.70867e-07
 5.71060e-07
 4.92003e-07
 4.28307e-07
 3.76231e-07
 3.33108e-07
 2.96996e-07
 2.66453e-07
 2.40390e-07
 2.17971e-07
 1.98548e-07
 1.81609e-07
 1.66748e-07
 1.53639e-07
 1.42017e-07
 1.31665e-07
 1.63601e-06
 1.27156e-06
 1.01793e-06
 8.33918e-07
 6.95996e-07
 5.89862e-07
 5.06394e-07
 4.39540e-07
 3.85148e-07
 3.40293e-07
 3.02862e-07
 2.71298e-07
 2.44433e-07
 2.21377e-07
 2.01442e-07
 1.84087e-07
 1.68885e-07
 1.55493e-07
 1.43635e-07
 1.33086e-07
 1.68840e-06
 1.30590e-06
 1.04165e-06
 8.50984e-07
 7.08680e-07
 5.99545e-07
 5.13953e-07
 4.45553e-07
 3.90010e-07
 3.44279e-07
 3.06171e-07
 2.74075e-07
 2.46786e-07
 2.23389e-07
 2.03175e-07
 1.85590e-07
 1.70197e-07
 1.56646e-07
 1.44654e-07
 1.33989e-07
 1.67129e-06
 1.29740e-06
 1.03743e-06
 8.49016e-07
 7.07938e-07
 5.99480e-07
 5.14261e-07
 4.46059e-07
 3.90614e-07
 3.44922e-07
 3.06817e-07
 2.74705e-07
 2.47390e-07
 2.23959e-07
 2.03710e-07
 1.86091e-07
 1.70664e-07
 1.57080e-07
 1.45056e-07
 1.34363e-07
 1.58808e-06
 1.24763e-06
 1.00607e-06
 8.28441e-07
 6.94006e-07
 5.89801e-07
 5.07394e-07
 4.41104e-07
 3.86986e-07
 3.42235e-07
 3.04808e-07
 2.73192e-07
 2.46243e-07
 2.23088e-07
 2.03047e-07
 1.85586e-07
 1.70281e-07
 1.56791e-07
 1.44842e-07
 1.34206e-07
 1.45471e-06
 1.16446e-06
 9.51751e-07
 7.91635e-07
 6.68295e-07
 5.71381e-07
 4.93912e-07
 4.31052e-07
 3.79372e-07
 3.36387e-07
 3.00261e-07
 2.69618e-07
 2.43408e-07
 2.20819e-07
 2.01218e-07
 1.84101e-07
 1.69068e-07
 1.55796e-07
 1.44020e-07
 1.33525e-07
 1.29323e-06
 1.05945e-06
 8.80933e-07
 7.42373e-07
 6.33113e-07
 5.45680e-07
 4.74766e-07
 4.16543e-07
 3.68210e-07
 3.27684e-07
 2.93395e-07
 2.64143e-07
 2.39000e-07
 2.17239e-07
 1.98287e-07
 1.81685e-07
 1.67063e-07
 1.54122e-07
 1.42615e-07
 1.32340e-07
 1.12434e-06
 9.44571e-07
 8.00728e-07
 6.85031e-07
 5.91234e-07
 5.14507e-07
 4.51165e-07
 3.98403e-07
 3.54077e-07
 3.16538e-07
 2.84506e-07
 2.56984e-07
 2.33181e-07
 2.12470e-07
 1.94349e-07
 1.78410e-07
 1.64322e-07
 1.51814e-07
 1.40661e-07
 1.30677e-07
 9.62957e-07
 8.29642e-07
 7.17546e-07
 6.23820e-07
 5.45465e-07
 4.79765e-07
 4.24424e-07
 3.77554e-07
 3.37629e-07
 3.03422e-07
 2.73943e-07
 2.48399e-07
 2.26145e-07
 2.06660e-07
 1.89515e-07
 1.74363e-07
 1.60913e-07
 1.48926e-07
 1.38201e-07
 1.28572e-07
 8.17480e-07
 7.21351e-07
 6.36301e-07
 5.62255e-07
 4.98300e-07
 4.43230e-07
 3.95814e-07
 3.54918e-07
 3.19543e-07
 2.88837e-07
 2.62080e-07
 2.38672e-07
 2.18109e-07
 1.99974e-07
 1.83917e-07
 1.69647e-07
 1.56917e-07
 1.45522e-07
 1.35287e-07
 1.26065e-07
 6.91173e-07
 6.23386e-07
 5.60233e-07
 5.02926e-07
 4.51732e-07
 4.06408e-07
 3.66470e-07
 3.31346e-07
 3.00460e-07
 2.73270e-07
 2.49290e-07
 2.28089e-07
 2.09296e-07
 1.92588e-07
 1.77691e-07
 1.64369e-07
 1.52420e-07
 1.41671e-07
 1.31975e-07
 1.23203e-07
 5.84054e-07
 5.37167e-07
 4.91106e-07
 4.47507e-07
 4.07193e-07
 3.70467e-07
 3.37320e-07
 3.07571e-07
 2.80954e-07
 2.57171e-07
 2.35924e-07
 2.16928e-07
 1.99923e-07
 1.84675e-07
 1.70976e-07
 1.58642e-07
 1.47513e-07
 1.37448e-07
 1.28324e-07
 1.20035e-07
