scalar
part
         1
quad4
 3.67617e-07
 3.51679e-07
 3.32777e-07
 3.12554e-07
 2.92111e-07
 2.72147e-07
 2.53083e-07
 2.35149e-07
 2.18449e-07
 2.03004e-07
 1.88785e-07
 1.75733e-07
 1.63772e-07
 1.52822e-07
 1.42798e-07
 1.33621e-07
 1.25214e-07
 1.17505e-07
 1.10428e-07
 1.03925e-07
 4.50946e-07
 4.22097e-07
 3.91909e-07
 3.62072e-07
 3.33563e-07
 3.06893e-07
 2.82281e-07
 2.59764e-07
 2.39278e-07
 2.20701e-07
 2.03885e-07
 1.88672e-07
 1.74908e-07
 1.62446e-07
 1.51152e-07
 1.40901e-07
 1.31583e-07
 1.23098e-07
 1.15359e-07
 1.08286e-07
 5.52996e-07
 5.05500e-07
 4.59959e-07
 4.17661e-07
 3.79111e-07
 3.44370e-07
 3.13269e-07
 2.85524e-07
 2.60810e-07
 2.38800e-07
 2.19183e-07
 2.01673e-07
 1.86015e-07
 1.71985e-07
 1.59383e-07
 1.48037e-07
 1.37798e-07
 1.28535e-07
 1.20134e-07
 1.12496e-07
 6.76075e-07
 6.02531e-07
 5.36764e-07
 4.78814e-07
 4.28137e-07
 3.83966e-07
 3.45491e-07
 3.11944e-07
 2.82634e-07
 2.56957e-07
 2.34393e-07
 2.14499e-07
 1.96899e-07
 1.81275e-07
 1.67358e-07
 1.54920e-07
 1.43768e-07
 1.33738e-07
 1.24689e-07
 1.16502e-07
 8.21018e-07
 7.12558e-07
 6.21187e-07
 5.44319e-07
 4.79530e-07
 4.24726e-07
 3.78154e-07
 3.38379e-07
 3.04228e-07
 2.74752e-07
 2.49179e-07
 2.26879e-07
 2.07340e-07
 1.90141e-07
 1.74934e-07
 1.61432e-07
 1.49397e-07
 1.38628e-07
 1.28959e-07
 1.20248e-07
 9.85820e-07
 8.32949e-07
 7.10751e-07
 6.12082e-07
 5.31606e-07
 4.65325e-07
 4.10228e-07
 3.64028e-07
 3.24971e-07
 2.91702e-07
 2.63161e-07
 2.38516e-07
 2.17104e-07
 1.98394e-07
 1.81959e-07
 1.67452e-07
 1.54585e-07
 1.43126e-07
 1.32878e-07
 1.23679e-07
 1.16409e-06
 9.58399e-07
 8.01367e-07
 6.79049e-07
 5.82103e-07
 5.04094e-07
 4.40475e-07
 3.87969e-07
 3.44170e-07
 3.07281e-07
 2.75939e-07
 2.49099e-07
 2.25947e-07
 2.05846e-07
 1.88285e-07
 1.72859e-07
 1.59238e-07
 1.47153e-07
 1.36383e-07
 1.26745e-07
 1.34384e-06
 1.08059e-06
 8.87327e-07
 7.41286e-07
 6.28290e-07
 5.39111e-07
 4.67525e-07
 4.09213e-07
 3.61100e-07
 3.20951e-07
 2.87108e-07
 2.58321e-07
 2.33636e-07
 2.12312e-07
 1.93768e-07
 1.77541e-07
 1.63264e-07
 1.50636e-07
 1.39414e-07
 1.29397e-07
 1.50737e-06
 1.18857e-06
 9.61701e-07
 7.94313e-07
 6.67201e-07
 5.68370e-07
 4.89993e-07
 4.26783e-07
 3.75062e-07
 3.32203e-07
 2.96290e-07
 2.65900e-07
 2.39955e-07
 2.17629e-07
 1.98278e-07
 1.81397e-07
 1.66583e-07
 1.53511e-07
 1.41920e-07
 1.31592e-07
 1.63311e-06
 1.27012e-06
 1.01726e-06
 8.33683e-07
 6.96005e-07
 5.90011e-07
 5.06624e-07
 4.39813e-07
 3.85443e-07
 3.40596e-07
 3.03165e-07
 2.71595e-07
 2.44722e-07
 2.21656e-07
 2.01709e-07
 1.84342e-07
 1.69129e-07
 1.55726e-07
 1.43857e-07
 1.33297e-07
 1.70035e-06
 1.31433e-06
 1.04788e-06
 8.55762e-07
 7.12448e-07
 6.02586e-07
 5.16455e-07
 4.47645e-07
 3.91783e-07
 3.45800e-07
 3.07489e-07
 2.75227e-07
 2.47802e-07
 2.24291e-07
 2.03981e-07
 1.86314e-07
 1.70852e-07
 1.57240e-07
 1.45195e-07
 1.34484e-07
 1.69641e-06
 1.31482e-06
 1.05007e-06
 8.58509e-07
 7.15276e-07
 6.05288e-07
 5.18950e-07
 4.49910e-07
 3.93822e-07
 3.47628e-07
 3.09126e-07
 2.76694e-07
 2.49118e-07
 2.25473e-07
 2.05046e-07
 1.87276e-07
 1.71722e-07
 1.58029e-07
 1.45913e-07
 1.35139e-07
 1.62278e-06
 1.27212e-06
 1.02399e-06
 8.41972e-07
 7.04483e-07
 5.98091e-07
 5.14076e-07
 4.46576e-07
 3.91530e-07
 3.46054e-07
 3.08053e-07
 2.75976e-07
 2.48652e-07
 2.25189e-07
 2.04892e-07
 1.87216e-07
 1.71730e-07
 1.58086e-07
 1.46004e-07
 1.35255e-07
 1.49484e-06
 1.19361e-06
 9.73517e-07
 8.08290e-07
 6.81315e-07
 5.81751e-07
 5.02308e-07
 4.37949e-07
 3.85109e-07
 3.41214e-07
 3.04364e-07
 2.73137e-07
 2.46451e-07
 2.23470e-07
 2.03543e-07
 1.86153e-07
 1.70890e-07
 1.57421e-07
 1.45477e-07
 1.34837e-07
 1.33521e-06
 1.09097e-06
 9.05054e-07
 7.61169e-07
 6.48010e-07
 5.57668e-07
 4.84549e-07
 4.24627e-07
 3.74966e-07
 3.33389e-07
 2.98256e-07
 2.68321e-07
 2.42618e-07
 2.20394e-07
 2.01056e-07
 1.84129e-07
 1.69233e-07
 1.56057e-07
 1.44349e-07
 1.33901e-07
 1.16564e-06
 9.76630e-07
 8.25904e-07
 7.05051e-07
 6.07353e-07
 5.27643e-07
 4.61992e-07
 4.07421e-07
 3.61662e-07
 3.22974e-07
 2.90015e-07
 2.61733e-07
 2.37305e-07
 2.16074e-07
 1.97517e-07
 1.81210e-07
 1.66810e-07
 1.54035e-07
 1.42653e-07
 1.32471e-07
 1.00207e-06
 8.60956e-07
 7.42766e-07
 6.44291e-07
 5.62225e-07
 4.93610e-07
 4.35962e-07
 3.87253e-07
 3.45849e-07
 3.10441e-07
 2.79982e-07
 2.53628e-07
 2.30702e-07
 2.10654e-07
 1.93036e-07
 1.77482e-07
 1.63689e-07
 1.51407e-07
 1.40429e-07
 1.30580e-07
 8.53650e-07
 7.51126e-07
 6.60855e-07
 5.82584e-07
 5.15223e-07
 4.57406e-07
 4.07768e-07
 3.65064e-07
 3.28213e-07
 2.96293e-07
 2.68532e-07
 2.44287e-07
 2.23024e-07
 2.04298e-07
 1.87740e-07
 1.73042e-07
 1.59946e-07
 1.48235e-07
 1.37727e-07
 1.28268e-07
 7.24152e-07
 6.51203e-07
 5.83667e-07
 5.22692e-07
 4.68451e-07
 4.20606e-07
 3.78584e-07
 3.41733e-07
 3.09412e-07
 2.81026e-07
 2.56044e-07
 2.34000e-07
 2.14493e-07
 1.97180e-07
 1.81766e-07
 1.68000e-07
 1.55668e-07
 1.44587e-07
 1.34602e-07
 1.25579e-07
 6.13884e-07
 5.62862e-07
 5.13169e-07
 4.66435e-07
 4.23445e-07
 3.84451e-07
 3.49389e-07
 3.18024e-07
 2.90042e-07
 2.65105e-07
 2.42878e-07
 2.23049e-07
 2.05334e-07
 1.89476e-07
 1.75253e-07
 1.62466e-07
 1.50944e-07
 1.40537e-07
 1.31114e-07
 1.22563e-07
