# vtk DataFile Version 2.0
gauge_2
ASCII
DATASET POLYDATA
POINTS 80 double
0.2 0.0314993 0.005
0.2 0.0329993 0.005
0.2 0.0344993 0.005
0.2 0.0359992 0.005
0.2 0.0374992 0.005
0.2 0.0389992 0.005
0.2 0.0404991 0.005
0.2 0.0419991 0.005
0.2 0.0434991 0.005
0.2 0.044999 0.005
0.2 0.046499 0.005
0.2 0.047999 0.005
0.2 0.0511894 0.005
0.2 0.0543799 0.005
0.2 0.0575704 0.005
0.2 0.0607609 0.005
0.2 0.0639514 0.005
0.2 0.0671419 0.005
0.2 0.0703323 0.005
0.2 0.0735228 0.005
0.2 0.0767133 0.005
0.2 0.0799038 0.005
0.2 0.0830943 0.005
0.2 0.0862847 0.005
0.2 0.0894752 0.005
0.2 0.0926657 0.005
0.2 0.0958562 0.005
0.2 0.0990467 0.005
0.2 0.102237 0.005
0.2 0.105428 0.005
0.2 0.108618 0.005
0.2 0.111809 0.005
0.2 0.11819 0.005
0.2 0.124571 0.005
0.2 0.137332 0.005
0.2 0.150094 0.005
0.2 0.162856 0.005
0.2 0.175618 0.005
0.2 0.18838 0.005
0.2 0.201142 0.005
0.2 0.213904 0.005
0.2 0.226666 0.005
0.2 0.239428 0.005
0.2 0.25219 0.005
0.2 0.264952 0.005
0.2 0.277714 0.005
0.2 0.290476 0.005
0.2 0.303238 0.005
0.2 0.315999 0.005
0.2 0.328761 0.005
0.2 0.341523 0.005
0.2 0.354285 0.005
0.2 0.367047 0.005
0.2 0.379809 0.005
0.2 0.392571 0.005
0.2 0.405333 0.005
0.2 0.418095 0.005
0.2 0.430857 0.005
0.2 0.437238 0.005
0.2 0.443619 0.005
0.2 0.45 0.005
0.2 0.45319 0.005
0.2 0.456381 0.005
0.2 0.459571 0.005
0.2 0.462762 0.005
0.2 0.465952 0.005
0.2 0.469143 0.005
0.2 0.472333 0.005
0.2 0.475524 0.005
0.2 0.481905 0.005
0.2 0.488286 0.005
0.2 0.494666 0.005
0.2 0.507428 0.005
0.2 0.513809 0.005
0.2 0.52019 0.005
0.2 0.526571 0.005
0.2 0.532952 0.005
0.2 0.539333 0.005
0.2 0.545714 0.005
0.2 0.558476 0.005
POINT_DATA 80
 FIELD attributes 1
alpha.water 1 80 float
1 1 1 1 1 1 1 1 1 1 1 1 1 1 1 1 1 1 0.999999 0.999996 1 0.999922 0.999826 0.999705 0.999961 0.964239 0.803861 0.398601 0.0843057 2.78724e-12 3.86463e-11 8.82448e-11 7.39429e-10 6.69929e-09 4.17485e-08 3.96035e-08 1.10395e-08 2.42446e-10 4.04746e-12 1.96312e-12 1.14025e-13 1.4594e-14 1.71936e-16 1.57984e-19 -3.40072e-18 -6.45155e-19 2.4729e-20 1.90493e-20 1.84178e-20 1.22221e-20 3.13238e-20 -3.60908e-18 2.50279e-17 -3.79736e-15 1.9915e-14 8.20353e-13 1.36255e-11 3.66889e-09 2.21452e-05 -9.43284e-06 0.000242899 0.00111452 0.00244924 0.00900293 0.0014974 0.000493074 0.000122957 -0.00106072 8.01927e-07 1.09618e-08 1.28258e-11 1.06999e-10 6.89048e-07 4.52109e-07 -3.42875e-08 4.30502e-08 1.57601e-08 1.77886e-09 -1.28497e-10 -1.38591e-15
