0 	1.00001 	0 	0 	0
0.00055 	1.00001 	-0.000866168 	0 	6.26534e-05
0.0011 	1.00001 	-0.00173234 	0 	0.000125307
0.00165 	1.00001 	-0.0025985 	0 	0.00018796
0.0022 	1.00001 	-0.00346467 	0 	0.000250614
0.00275 	1.00001 	-0.00433084 	0 	0.000313267
0.0033 	1.00001 	-0.00519701 	0 	0.000375921
0.00385 	1.00001 	-0.00606318 	0 	0.000438574
0.0044 	1.00001 	-0.00692935 	0 	0.000501227
0.00495 	1.00001 	-0.00779551 	0 	0.000563881
0.0055 	1.00001 	-0.00866168 	0 	0.000626534
0.00605 	1.00001 	-0.00952785 	0 	0.000689188
0.0066 	1.00001 	-0.010394 	0 	0.000751841
0.00715 	1.00001 	-0.0112602 	0 	0.000814495
0.0077 	1.00001 	-0.0121264 	0 	0.000877148
0.00825 	1.00001 	-0.0129925 	0 	0.000939801
0.0088 	1.00001 	-0.0138587 	0 	0.00100245
0.00935 	1.00001 	-0.0147249 	0 	0.00106511
0.0099 	1.00001 	-0.015591 	0 	0.00112776
0.01045 	1.00001 	-0.0158786 	0 	0.00119458
0.011 	1.00001 	-0.0160376 	0 	0.00126232
0.01155 	1.00001 	-0.0161966 	0 	0.00133006
0.0121 	1.00001 	-0.0163556 	0 	0.0013978
0.01265 	1.00001 	-0.0165146 	0 	0.00146554
0.0132 	1.00002 	-0.0166735 	0 	0.00153329
0.01375 	1.00002 	-0.0168325 	0 	0.00160103
0.0143 	1.00002 	-0.0169915 	0 	0.00166877
0.01485 	1.00002 	-0.0171505 	0 	0.00173651
0.0154 	1.00002 	-0.0173095 	0 	0.00180425
0.01595 	1.00002 	-0.0174685 	0 	0.00187199
0.0165 	1.00002 	-0.0176275 	0 	0.00193974
0.01705 	1.00002 	-0.0177865 	0 	0.00200748
0.0176 	1.00002 	-0.0179455 	0 	0.00207522
0.01815 	1.00002 	-0.0181045 	0 	0.00214296
0.0187 	1.00002 	-0.0182635 	0 	0.0022107
0.01925 	1.00002 	-0.0184224 	0 	0.00227844
0.0198 	1.00002 	-0.0185814 	0 	0.00234619
0.02035 	1.00002 	-0.0186438 	0 	0.00241464
0.0209 	1.00002 	-0.0186508 	0 	0.00248351
0.02145 	1.00002 	-0.0186579 	0 	0.00255238
0.022 	1.00002 	-0.018665 	0 	0.00262125
0.02255 	1.00002 	-0.0186721 	0 	0.00269011
0.0231 	1.00002 	-0.0186792 	0 	0.00275898
0.02365 	1.00002 	-0.0186863 	0 	0.00282785
0.0242 	1.00002 	-0.0186934 	0 	0.00289672
0.02475 	1.00002 	-0.0187004 	0 	0.00296558
0.0253 	1.00002 	-0.0187075 	0 	0.00303445
0.02585 	1.00002 	-0.0187146 	0 	0.00310332
0.0264 	1.00002 	-0.0187217 	0 	0.00317218
0.02695 	1.00002 	-0.0187288 	0 	0.00324105
0.0275 	1.00002 	-0.0187359 	0 	0.00330992
0.02805 	1.00002 	-0.0187429 	0 	0.00337879
0.0286 	1.00002 	-0.01875 	0 	0.00344765
0.02915 	1.00002 	-0.0187571 	0 	0.00351652
0.0297 	1.00002 	-0.0187642 	0 	0.00358539
0.03025 	1.00002 	-0.0187543 	0 	0.00365386
0.0308 	1.00002 	-0.0187239 	0 	0.00372186
0.03135 	1.00002 	-0.0186936 	0 	0.00378986
0.0319 	1.00002 	-0.0186632 	0 	0.00385786
0.03245 	1.00002 	-0.0186328 	0 	0.00392586
0.033 	1.00002 	-0.0186025 	0 	0.00399386
0.03355 	1.00002 	-0.0185721 	0 	0.00406185
0.0341 	1.00002 	-0.0185418 	0 	0.00412985
0.03465 	1.00002 	-0.0185114 	0 	0.00419785
0.0352 	1.00002 	-0.0184811 	0 	0.00426585
0.03575 	1.00002 	-0.0184507 	0 	0.00433385
0.0363 	1.00002 	-0.0184204 	0 	0.00440185
0.03685 	1.00002 	-0.01839 	0 	0.00446985
0.0374 	1.00002 	-0.0183596 	0 	0.00453784
0.03795 	1.00002 	-0.0183293 	0 	0.00460584
0.0385 	1.00002 	-0.0182989 	0 	0.00467384
0.03905 	1.00002 	-0.0182686 	0 	0.00474184
0.0396 	1.00002 	-0.0182382 	0 	0.00480984
0.04015 	1.00002 	-0.01821 	0 	0.0048776
0.0407 	1.00002 	-0.0181875 	0 	0.00494474
0.04125 	1.00002 	-0.018165 	0 	0.00501188
0.0418 	1.00002 	-0.0181425 	0 	0.00507903
0.04235 	1.00002 	-0.0181199 	0 	0.00514617
0.0429 	1.00002 	-0.0180974 	0 	0.00521331
0.04345 	1.00002 	-0.0180749 	0 	0.00528045
0.044 	1.00002 	-0.0180524 	0 	0.00534759
0.04455 	1.00002 	-0.0180299 	0 	0.00541473
0.0451 	1.00002 	-0.0180074 	0 	0.00548187
0.04565 	1.00002 	-0.0179848 	0 	0.00554901
0.0462 	1.00002 	-0.0179623 	0 	0.00561615
0.04675 	1.00002 	-0.0179398 	0 	0.00568329
0.0473 	1.00002 	-0.0179173 	0 	0.00575043
0.04785 	1.00002 	-0.0178948 	0 	0.00581757
0.0484 	1.00002 	-0.0178723 	0 	0.00588472
0.04895 	1.00002 	-0.0178497 	0 	0.00595186
0.0495 	1.00002 	-0.0178272 	0 	0.006019
0.05005 	1.00002 	-0.0178057 	0 	0.00608607
0.0506 	1.00002 	-0.0177941 	0 	0.00615248
0.05115 	1.00002 	-0.0177824 	0 	0.0062189
0.0517 	1.00002 	-0.0177708 	0 	0.00628531
0.05225 	1.00002 	-0.0177592 	0 	0.00635172
0.0528 	1.00002 	-0.0177476 	0 	0.00641813
0.05335 	1.00002 	-0.0177359 	0 	0.00648454
0.0539 	1.00002 	-0.0177243 	0 	0.00655096
0.05445 	1.00002 	-0.0177127 	0 	0.00661737
0.055 	1.00002 	-0.0177011 	0 	0.00668378
0.05555 	1.00002 	-0.0176895 	0 	0.00675019
0.0561 	1.00002 	-0.0176778 	0 	0.0068166
0.05665 	1.00002 	-0.0176662 	0 	0.00688302
0.0572 	1.00002 	-0.0176546 	0 	0.00694943
0.05775 	1.00002 	-0.017643 	0 	0.00701584
0.0583 	1.00002 	-0.0176313 	0 	0.00708225
0.05885 	1.00002 	-0.0176197 	0 	0.00714866
0.0594 	1.00002 	-0.0176081 	0 	0.00721508
0.05995 	1.00002 	-0.0175965 	0 	0.00728149
0.0605 	1.00002 	-0.0175893 	0 	0.00734749
0.06105 	1.00002 	-0.0175826 	0 	0.00741344
0.0616 	1.00002 	-0.0175759 	0 	0.0074794
0.06215 	1.00002 	-0.0175691 	0 	0.00754536
0.0627 	1.00002 	-0.0175624 	0 	0.00761131
0.06325 	1.00002 	-0.0175557 	0 	0.00767727
0.0638 	1.00002 	-0.017549 	0 	0.00774323
0.06435 	1.00002 	-0.0175423 	0 	0.00780919
0.0649 	1.00002 	-0.0175356 	0 	0.00787514
0.06545 	1.00002 	-0.0175289 	0 	0.0079411
0.066 	1.00002 	-0.0175221 	0 	0.00800706
0.06655 	1.00002 	-0.0175154 	0 	0.00807301
0.0671 	1.00002 	-0.0175087 	0 	0.00813897
0.06765 	1.00002 	-0.017502 	0 	0.00820493
0.0682 	1.00002 	-0.0174953 	0 	0.00827088
0.06875 	1.00002 	-0.0174886 	0 	0.00833684
0.0693 	1.00002 	-0.0174819 	0 	0.0084028
0.06985 	1.00002 	-0.0174751 	0 	0.00846876
0.0704 	1.00002 	-0.0174693 	0 	0.00853452
0.07095 	1.00002 	-0.0174637 	0 	0.00860021
0.0715 	1.00002 	-0.0174582 	0 	0.0086659
0.07205 	1.00002 	-0.0174526 	0 	0.00873159
0.0726 	1.00002 	-0.0174471 	0 	0.00879728
0.07315 	1.00002 	-0.0174415 	0 	0.00886297
0.0737 	1.00002 	-0.017436 	0 	0.00892866
0.07425 	1.00002 	-0.0174304 	0 	0.00899435
0.0748 	1.00002 	-0.0174249 	0 	0.00906004
0.07535 	1.00002 	-0.0174194 	0 	0.00912573
0.0759 	1.00002 	-0.0174138 	0 	0.00919142
0.07645 	1.00002 	-0.0174083 	0 	0.00925711
0.077 	1.00002 	-0.0174027 	0 	0.00932279
0.07755 	1.00002 	-0.0173972 	0 	0.00938848
0.0781 	1.00002 	-0.0173916 	0 	0.00945417
0.07865 	1.00002 	-0.0173861 	0 	0.00951986
0.0792 	1.00002 	-0.0173805 	0 	0.00958555
0.07975 	1.00002 	-0.017375 	0 	0.00965124
0.0803 	1.00002 	-0.0173694 	0 	0.00971683
0.08085 	1.00002 	-0.0173639 	0 	0.00978233
0.0814 	1.00002 	-0.0173584 	0 	0.00984783
0.08195 	1.00002 	-0.0173528 	0 	0.00991333
0.0825 	1.00002 	-0.0173473 	0 	0.00997883
0.08305 	1.00002 	-0.0173418 	0 	0.0100443
0.0836 	1.00002 	-0.0173362 	0 	0.0101098
0.08415 	1.00002 	-0.0173307 	0 	0.0101753
0.0847 	1.00002 	-0.0173251 	0 	0.0102408
0.08525 	1.00002 	-0.0173196 	0 	0.0103063
0.0858 	1.00002 	-0.0173141 	0 	0.0103718
0.08635 	1.00002 	-0.0173085 	0 	0.0104373
0.0869 	1.00002 	-0.017303 	0 	0.0105028
0.08745 	1.00002 	-0.0172975 	0 	0.0105683
0.088 	1.00002 	-0.0172919 	0 	0.0106338
0.08855 	1.00002 	-0.0172864 	0 	0.0106993
0.0891 	1.00002 	-0.0172808 	0 	0.0107648
0.08965 	1.00002 	-0.0172753 	0 	0.0108303
0.0902 	1.00001 	-0.0172698 	0 	0.0108958
0.09075 	1.00001 	-0.0172642 	0 	0.0109611
0.0913 	1.00001 	-0.0172587 	0 	0.0110264
0.09185 	1.00001 	-0.0172532 	0 	0.0110918
0.0924 	1.00001 	-0.0172476 	0 	0.0111571
0.09295 	1.00001 	-0.0172421 	0 	0.0112224
0.0935 	1.00001 	-0.0172366 	0 	0.0112878
0.09405 	1.00001 	-0.017231 	0 	0.0113531
0.0946 	1.00001 	-0.0172255 	0 	0.0114185
0.09515 	1.00001 	-0.01722 	0 	0.0114838
0.0957 	1.00001 	-0.0172144 	0 	0.0115491
0.09625 	1.00001 	-0.0172089 	0 	0.0116145
0.0968 	1.00001 	-0.0172033 	0 	0.0116798
0.09735 	1.00001 	-0.0171978 	0 	0.0117451
0.0979 	1.00001 	-0.0171923 	0 	0.0118105
0.09845 	1.00001 	-0.0171867 	0 	0.0118758
0.099 	1.00001 	-0.0171812 	0 	0.0119411
0.09955 	1.00001 	-0.0171757 	0 	0.0120065
0.1001 	1.00001 	-0.0171702 	0 	0.0120718
0.10065 	1.00001 	-0.0171649 	0 	0.012137
0.1012 	1.00001 	-0.0171596 	0 	0.0122021
0.10175 	1.00001 	-0.0171543 	0 	0.0122673
0.1023 	1.00001 	-0.017149 	0 	0.0123325
0.10285 	1.00001 	-0.0171437 	0 	0.0123977
0.1034 	1.00001 	-0.0171384 	0 	0.0124629
0.10395 	1.00001 	-0.0171331 	0 	0.0125281
0.1045 	1.00001 	-0.0171278 	0 	0.0125933
0.10505 	1.00001 	-0.0171225 	0 	0.0126585
0.1056 	1.00001 	-0.0171172 	0 	0.0127236
0.10615 	1.00001 	-0.0171119 	0 	0.0127888
0.1067 	1.00001 	-0.0171066 	0 	0.012854
0.10725 	1.00001 	-0.0171013 	0 	0.0129192
0.1078 	1.00001 	-0.017096 	0 	0.0129844
0.10835 	1.00001 	-0.0170907 	0 	0.0130496
0.1089 	1.00001 	-0.0170854 	0 	0.0131148
0.10945 	1.00001 	-0.0170801 	0 	0.0131799
0.11 	1.00001 	-0.0170747 	0 	0.0132451
0.11055 	1.00001 	-0.0170698 	0 	0.0133102
0.1111 	1.00001 	-0.0170649 	0 	0.0133753
0.11165 	1.00001 	-0.01706 	0 	0.0134403
0.1122 	1.00001 	-0.0170551 	0 	0.0135054
0.11275 	1.00001 	-0.0170502 	0 	0.0135705
0.1133 	1.00001 	-0.0170453 	0 	0.0136356
0.11385 	1.00001 	-0.0170404 	0 	0.0137006
0.1144 	1.00001 	-0.0170354 	0 	0.0137657
0.11495 	1.00001 	-0.0170305 	0 	0.0138308
0.1155 	1.00001 	-0.0170256 	0 	0.0138959
0.11605 	1.00001 	-0.0170207 	0 	0.0139609
0.1166 	1.00001 	-0.0170158 	0 	0.014026
0.11715 	1.00001 	-0.0170109 	0 	0.0140911
0.1177 	1.00001 	-0.017006 	0 	0.0141561
0.11825 	1.00001 	-0.0170011 	0 	0.0142212
0.1188 	1.00001 	-0.0169961 	0 	0.0142863
0.11935 	1.00001 	-0.0169912 	0 	0.0143514
0.1199 	1.00001 	-0.0169863 	0 	0.0144164
0.12045 	1.00001 	-0.0169818 	0 	0.0144814
0.121 	1.00001 	-0.0169773 	0 	0.0145464
0.12155 	1.00001 	-0.0169728 	0 	0.0146114
0.1221 	1.00001 	-0.0169684 	0 	0.0146764
0.12265 	1.00001 	-0.0169639 	0 	0.0147414
0.1232 	1.00001 	-0.0169594 	0 	0.0148064
0.12375 	1.00001 	-0.016955 	0 	0.0148714
0.1243 	1.00001 	-0.0169505 	0 	0.0149364
0.12485 	1.00001 	-0.016946 	0 	0.0150014
0.1254 	1.00001 	-0.0169416 	0 	0.0150664
0.12595 	1.00001 	-0.0169371 	0 	0.0151314
0.1265 	1.00001 	-0.0169326 	0 	0.0151964
0.12705 	1.00001 	-0.0169282 	0 	0.0152614
0.1276 	1.00001 	-0.0169237 	0 	0.0153264
0.12815 	1.00001 	-0.0169192 	0 	0.0153914
0.1287 	1.00001 	-0.0169148 	0 	0.0154564
0.12925 	1.00001 	-0.0169103 	0 	0.0155213
0.1298 	1.00001 	-0.0169058 	0 	0.0155863
0.13035 	1.00001 	-0.0169017 	0 	0.0156513
0.1309 	1.00001 	-0.0168977 	0 	0.0157163
0.13145 	1.00001 	-0.0168936 	0 	0.0157812
0.132 	1.00001 	-0.0168896 	0 	0.0158461
0.13255 	1.00001 	-0.0168856 	0 	0.0159111
0.1331 	1.00001 	-0.0168816 	0 	0.015976
0.13365 	1.00001 	-0.0168776 	0 	0.016041
0.1342 	1.00001 	-0.0168736 	0 	0.0161059
0.13475 	1.00001 	-0.0168696 	0 	0.0161709
0.1353 	1.00001 	-0.0168656 	0 	0.0162358
0.13585 	1.00001 	-0.0168616 	0 	0.0163008
0.1364 	1.00001 	-0.0168576 	0 	0.0163657
0.13695 	1.00001 	-0.0168536 	0 	0.0164307
0.1375 	1.00001 	-0.0168496 	0 	0.0164956
0.13805 	1.00001 	-0.0168456 	0 	0.0165606
0.1386 	1.00001 	-0.0168415 	0 	0.0166255
0.13915 	1.00001 	-0.0168375 	0 	0.0166905
0.1397 	1.00001 	-0.0168335 	0 	0.0167554
0.14025 	1.00001 	-0.0168297 	0 	0.0168204
0.1408 	1.00001 	-0.0168262 	0 	0.0168853
0.14135 	1.00001 	-0.0168226 	0 	0.0169502
0.1419 	1.00001 	-0.0168191 	0 	0.0170152
0.14245 	1.00001 	-0.0168156 	0 	0.0170801
0.143 	1.00001 	-0.016812 	0 	0.017145
0.14355 	1.00001 	-0.0168085 	0 	0.01721
0.1441 	1.00001 	-0.0168049 	0 	0.0172749
0.14465 	1.00001 	-0.0168014 	0 	0.0173399
0.1452 	1.00001 	-0.0167978 	0 	0.0174048
0.14575 	1.00001 	-0.0167943 	0 	0.0174697
0.1463 	1.00001 	-0.0167907 	0 	0.0175347
0.14685 	1.00001 	-0.0167872 	0 	0.0175996
0.1474 	1.00001 	-0.0167836 	0 	0.0176645
0.14795 	1.00001 	-0.0167801 	0 	0.0177295
0.1485 	1.00001 	-0.0167766 	0 	0.0177944
0.14905 	1.00001 	-0.016773 	0 	0.0178593
0.1496 	1.00001 	-0.0167695 	0 	0.0179243
0.15015 	1.00001 	-0.016766 	0 	0.0179892
0.1507 	1.00001 	-0.016763 	0 	0.0180542
0.15125 	1.00001 	-0.0167599 	0 	0.0181192
0.1518 	1.00001 	-0.0167568 	0 	0.0181841
0.15235 	1.00001 	-0.0167538 	0 	0.0182491
0.1529 	1.00001 	-0.0167507 	0 	0.018314
0.15345 	1.00001 	-0.0167476 	0 	0.018379
0.154 	1.00001 	-0.0167445 	0 	0.018444
0.15455 	1.00001 	-0.0167415 	0 	0.0185089
0.1551 	1.00001 	-0.0167384 	0 	0.0185739
0.15565 	1.00001 	-0.0167353 	0 	0.0186389
0.1562 	1.00001 	-0.0167323 	0 	0.0187038
0.15675 	1.00001 	-0.0167292 	0 	0.0187688
0.1573 	1.00001 	-0.0167261 	0 	0.0188337
0.15785 	1.00001 	-0.016723 	0 	0.0188987
0.1584 	1.00001 	-0.01672 	0 	0.0189637
0.15895 	1.00001 	-0.0167169 	0 	0.0190286
0.1595 	1.00001 	-0.0167138 	0 	0.0190936
0.16005 	1.00001 	-0.0167108 	0 	0.0191586
0.1606 	1.00001 	-0.0167082 	0 	0.0192236
0.16115 	1.00001 	-0.0167056 	0 	0.0192886
0.1617 	1.00001 	-0.016703 	0 	0.0193536
0.16225 	1.00001 	-0.0167005 	0 	0.0194186
0.1628 	1.00001 	-0.0166979 	0 	0.0194837
0.16335 	1.00001 	-0.0166953 	0 	0.0195487
0.1639 	1.00001 	-0.0166927 	0 	0.0196137
0.16445 	1.00001 	-0.0166901 	0 	0.0196787
0.165 	1.00001 	-0.0166876 	0 	0.0197438
0.16555 	1.00001 	-0.016685 	0 	0.0198088
0.1661 	1.00001 	-0.0166824 	0 	0.0198738
0.16665 	1.00001 	-0.0166798 	0 	0.0199388
0.1672 	1.00001 	-0.0166772 	0 	0.0200039
0.16775 	1.00001 	-0.0166746 	0 	0.0200689
0.1683 	1.00001 	-0.0166721 	0 	0.0201339
0.16885 	1.00001 	-0.0166695 	0 	0.0201989
0.1694 	1.00001 	-0.0166669 	0 	0.0202639
0.16995 	1.00001 	-0.0166643 	0 	0.020329
0.1705 	1.00001 	-0.0166622 	0 	0.0203941
0.17105 	1.00001 	-0.0166601 	0 	0.0204592
0.1716 	1.00001 	-0.016658 	0 	0.0205243
0.17215 	1.00001 	-0.016656 	0 	0.0205894
0.1727 	1.00001 	-0.0166539 	0 	0.0206545
0.17325 	1.00001 	-0.0166518 	0 	0.0207197
0.1738 	1.00001 	-0.0166497 	0 	0.0207848
0.17435 	1.00001 	-0.0166477 	0 	0.0208499
0.1749 	1.00001 	-0.0166456 	0 	0.020915
0.17545 	1.00001 	-0.0166435 	0 	0.0209801
0.176 	1.00001 	-0.0166414 	0 	0.0210452
0.17655 	1.00001 	-0.0166393 	0 	0.0211103
0.1771 	1.00001 	-0.0166373 	0 	0.0211755
0.17765 	1.00001 	-0.0166352 	0 	0.0212406
0.1782 	1.00001 	-0.0166331 	0 	0.0213057
0.17875 	1.00001 	-0.016631 	0 	0.0213708
0.1793 	1.00001 	-0.016629 	0 	0.0214359
0.17985 	1.00001 	-0.0166269 	0 	0.021501
0.1804 	1.00001 	-0.0166252 	0 	0.0215662
0.18095 	1.00001 	-0.0166236 	0 	0.0216315
0.1815 	1.00001 	-0.0166221 	0 	0.0216967
0.18205 	1.00001 	-0.0166205 	0 	0.021762
0.1826 	1.00001 	-0.016619 	0 	0.0218272
0.18315 	1.00001 	-0.0166174 	0 	0.0218924
0.1837 	1.00001 	-0.0166159 	0 	0.0219577
0.18425 	1.00001 	-0.0166143 	0 	0.0220229
0.1848 	1.00001 	-0.0166127 	0 	0.0220881
0.18535 	1.00001 	-0.0166112 	0 	0.0221534
0.1859 	1.00001 	-0.0166096 	0 	0.0222186
0.18645 	1.00001 	-0.0166081 	0 	0.0222839
0.187 	1.00001 	-0.0166065 	0 	0.0223491
0.18755 	1.00001 	-0.016605 	0 	0.0224143
0.1881 	1.00001 	-0.0166034 	0 	0.0224796
0.18865 	1.00001 	-0.0166019 	0 	0.0225448
0.1892 	1.00001 	-0.0166003 	0 	0.02261
0.18975 	1.00001 	-0.0165987 	0 	0.0226753
0.1903 	1.00001 	-0.0165975 	0 	0.0227406
0.19085 	1.00001 	-0.0165964 	0 	0.022806
0.1914 	1.00001 	-0.0165954 	0 	0.0228714
0.19195 	1.00001 	-0.0165944 	0 	0.0229368
0.1925 	1.00001 	-0.0165934 	0 	0.0230022
0.19305 	1.00001 	-0.0165923 	0 	0.0230676
0.1936 	1.00001 	-0.0165913 	0 	0.023133
0.19415 	1.00001 	-0.0165903 	0 	0.0231984
0.1947 	1.00001 	-0.0165893 	0 	0.0232638
0.19525 	1.00001 	-0.0165882 	0 	0.0233292
0.1958 	1.00001 	-0.0165872 	0 	0.0233946
0.19635 	1.00001 	-0.0165862 	0 	0.0234599
0.1969 	1.00001 	-0.0165851 	0 	0.0235253
0.19745 	1.00001 	-0.0165841 	0 	0.0235907
0.198 	1.00001 	-0.0165831 	0 	0.0236561
0.19855 	1.00001 	-0.0165821 	0 	0.0237215
0.1991 	1.00001 	-0.016581 	0 	0.0237869
0.19965 	1.00001 	-0.01658 	0 	0.0238523
0.2002 	1.00001 	-0.0165792 	0 	0.0239178
0.20075 	1.00001 	-0.0165787 	0 	0.0239834
0.2013 	1.00001 	-0.0165782 	0 	0.024049
0.20185 	1.00001 	-0.0165777 	0 	0.0241146
0.2024 	1.00001 	-0.0165773 	0 	0.0241802
0.20295 	1.00001 	-0.0165768 	0 	0.0242458
0.2035 	1.00001 	-0.0165763 	0 	0.0243114
0.20405 	1.00001 	-0.0165758 	0 	0.024377
0.2046 	1.00001 	-0.0165753 	0 	0.0244426
0.20515 	1.00001 	-0.0165748 	0 	0.0245082
0.2057 	1.00001 	-0.0165744 	0 	0.0245738
0.20625 	1.00001 	-0.0165739 	0 	0.0246394
0.2068 	1.00001 	-0.0165734 	0 	0.024705
0.20735 	1.00001 	-0.0165729 	0 	0.0247706
0.2079 	1.00001 	-0.0165724 	0 	0.0248362
0.20845 	1.00001 	-0.0165719 	0 	0.0249018
0.209 	1.00001 	-0.0165715 	0 	0.0249674
0.20955 	1.00001 	-0.016571 	0 	0.025033
0.2101 	1.00001 	-0.0165706 	0 	0.0250987
0.21065 	1.00001 	-0.0165707 	0 	0.0251645
0.2112 	1.00001 	-0.0165707 	0 	0.0252303
0.21175 	1.00001 	-0.0165708 	0 	0.0252962
0.2123 	1.00001 	-0.0165709 	0 	0.025362
0.21285 	1.00001 	-0.016571 	0 	0.0254279
0.2134 	1.00001 	-0.0165711 	0 	0.0254937
0.21395 	1.00001 	-0.0165711 	0 	0.0255596
0.2145 	1.00001 	-0.0165712 	0 	0.0256254
0.21505 	1.00001 	-0.0165713 	0 	0.0256913
0.2156 	1.00001 	-0.0165714 	0 	0.0257571
0.21615 	1.00001 	-0.0165715 	0 	0.0258229
0.2167 	1.00001 	-0.0165715 	0 	0.0258888
0.21725 	1.00001 	-0.0165716 	0 	0.0259546
0.2178 	1.00001 	-0.0165717 	0 	0.0260205
0.21835 	1.00001 	-0.0165718 	0 	0.0260863
0.2189 	1.00001 	-0.0165718 	0 	0.0261522
0.21945 	1.00001 	-0.0165719 	0 	0.026218
0.22 	1.00001 	-0.016572 	0 	0.0262838
0.22055 	1.00001 	-0.0165727 	0 	0.02635
0.2211 	1.00001 	-0.0165733 	0 	0.0264161
0.22165 	1.00001 	-0.016574 	0 	0.0264822
0.2222 	1.00001 	-0.0165746 	0 	0.0265483
0.22275 	1.00001 	-0.0165753 	0 	0.0266144
0.2233 	1.00001 	-0.0165759 	0 	0.0266805
0.22385 	1.00001 	-0.0165766 	0 	0.0267466
0.2244 	1.00001 	-0.0165772 	0 	0.0268127
0.22495 	1.00001 	-0.0165779 	0 	0.0268788
0.2255 	1.00001 	-0.0165785 	0 	0.026945
0.22605 	1.00001 	-0.0165792 	0 	0.0270111
0.2266 	1.00001 	-0.0165798 	0 	0.0270772
0.22715 	1.00001 	-0.0165805 	0 	0.0271433
0.2277 	1.00001 	-0.0165811 	0 	0.0272094
0.22825 	1.00001 	-0.0165818 	0 	0.0272755
0.2288 	1.00001 	-0.0165824 	0 	0.0273416
0.22935 	1.00001 	-0.0165831 	0 	0.0274077
0.2299 	1.00001 	-0.0165837 	0 	0.0274739
0.23045 	1.00001 	-0.0165849 	0 	0.0275402
0.231 	1.00001 	-0.0165861 	0 	0.0276066
0.23155 	1.00001 	-0.0165873 	0 	0.027673
0.2321 	1.00001 	-0.0165886 	0 	0.0277395
0.23265 	1.00001 	-0.0165898 	0 	0.0278059
0.2332 	1.00001 	-0.016591 	0 	0.0278723
0.23375 	1.00001 	-0.0165923 	0 	0.0279387
0.2343 	1.00001 	-0.0165935 	0 	0.0280051
0.23485 	1.00001 	-0.0165947 	0 	0.0280715
0.2354 	1.00001 	-0.016596 	0 	0.0281379
0.23595 	1.00001 	-0.0165972 	0 	0.0282044
0.2365 	1.00001 	-0.0165984 	0 	0.0282708
0.23705 	1.00001 	-0.0165997 	0 	0.0283372
0.2376 	1.00001 	-0.0166009 	0 	0.0284036
0.23815 	1.00001 	-0.0166021 	0 	0.02847
0.2387 	1.00001 	-0.0166034 	0 	0.0285364
0.23925 	1.00001 	-0.0166046 	0 	0.0286028
0.2398 	1.00001 	-0.0166058 	0 	0.0286693
0.24035 	1.00001 	-0.0166074 	0 	0.0287359
0.2409 	1.00001 	-0.0166093 	0 	0.0288026
0.24145 	1.00001 	-0.0166111 	0 	0.0288694
0.242 	1.00001 	-0.0166129 	0 	0.0289362
0.24255 	1.00001 	-0.0166148 	0 	0.0290029
0.2431 	1.00001 	-0.0166166 	0 	0.0290697
0.24365 	1.00001 	-0.0166184 	0 	0.0291364
0.2442 	1.00001 	-0.0166202 	0 	0.0292032
0.24475 	1.00001 	-0.0166221 	0 	0.0292699
0.2453 	1.00001 	-0.0166239 	0 	0.0293367
0.24585 	1.00001 	-0.0166257 	0 	0.0294034
0.2464 	1.00001 	-0.0166276 	0 	0.0294702
0.24695 	1.00001 	-0.0166294 	0 	0.0295369
0.2475 	1.00001 	-0.0166312 	0 	0.0296037
0.24805 	1.00001 	-0.0166331 	0 	0.0296705
0.2486 	1.00001 	-0.0166349 	0 	0.0297372
0.24915 	1.00001 	-0.0166367 	0 	0.029804
0.2497 	1.00001 	-0.0166385 	0 	0.0298707
0.25025 	1.00001 	-0.0166407 	0 	0.0299376
0.2508 	1.00001 	-0.0166431 	0 	0.0300048
0.25135 	1.00001 	-0.0166455 	0 	0.0300719
0.2519 	1.00001 	-0.016648 	0 	0.030139
0.25245 	1.00001 	-0.0166504 	0 	0.0302062
0.253 	1.00001 	-0.0166528 	0 	0.0302733
0.25355 	1.00001 	-0.0166553 	0 	0.0303404
0.2541 	1.00001 	-0.0166577 	0 	0.0304076
0.25465 	1.00001 	-0.0166602 	0 	0.0304747
0.2552 	1.00001 	-0.0166626 	0 	0.0305418
0.25575 	1.00001 	-0.016665 	0 	0.030609
0.2563 	1.00001 	-0.0166675 	0 	0.0306761
0.25685 	1.00001 	-0.0166699 	0 	0.0307432
0.2574 	1.00001 	-0.0166723 	0 	0.0308104
0.25795 	1.00001 	-0.0166748 	0 	0.0308775
0.2585 	1.00001 	-0.0166772 	0 	0.0309446
0.25905 	1.00001 	-0.0166797 	0 	0.0310118
0.2596 	1.00001 	-0.0166821 	0 	0.0310789
0.26015 	1.00001 	-0.0166847 	0 	0.0311461
0.2607 	1.00001 	-0.0166878 	0 	0.0312137
0.26125 	1.00001 	-0.0166908 	0 	0.0312812
0.2618 	1.00001 	-0.0166939 	0 	0.0313488
0.26235 	1.00001 	-0.0166969 	0 	0.0314163
0.2629 	1.00001 	-0.0167 	0 	0.0314838
0.26345 	1.00001 	-0.0167031 	0 	0.0315514
0.264 	1.00001 	-0.0167061 	0 	0.0316189
0.26455 	1.00001 	-0.0167092 	0 	0.0316865
0.2651 	1.00001 	-0.0167122 	0 	0.031754
0.26565 	1.00001 	-0.0167153 	0 	0.0318216
0.2662 	1.00001 	-0.0167183 	0 	0.0318891
0.26675 	1.00001 	-0.0167214 	0 	0.0319566
0.2673 	1.00001 	-0.0167245 	0 	0.0320242
0.26785 	1.00001 	-0.0167275 	0 	0.0320917
0.2684 	1.00001 	-0.0167306 	0 	0.0321593
0.26895 	1.00001 	-0.0167336 	0 	0.0322268
0.2695 	1.00001 	-0.0167367 	0 	0.0322943
0.27005 	1.00001 	-0.0167398 	0 	0.0323619
0.2706 	1.00001 	-0.0167435 	0 	0.0324299
0.27115 	1.00001 	-0.0167472 	0 	0.0324979
0.2717 	1.00001 	-0.0167509 	0 	0.0325659
0.27225 	1.00001 	-0.0167546 	0 	0.0326338
0.2728 	1.00001 	-0.0167583 	0 	0.0327018
0.27335 	1.00001 	-0.016762 	0 	0.0327698
0.2739 	1.00001 	-0.0167657 	0 	0.0328378
0.27445 	1.00001 	-0.0167693 	0 	0.0329058
0.275 	1.00001 	-0.016773 	0 	0.0329737
0.27555 	1.00001 	-0.0167767 	0 	0.0330417
0.2761 	1.00001 	-0.0167804 	0 	0.0331097
0.27665 	1.00001 	-0.0167841 	0 	0.0331777
0.2772 	1.00001 	-0.0167878 	0 	0.0332456
0.27775 	1.00001 	-0.0167915 	0 	0.0333136
0.2783 	1.00001 	-0.0167952 	0 	0.0333816
0.27885 	1.00001 	-0.0167989 	0 	0.0334496
0.2794 	1.00001 	-0.0168026 	0 	0.0335176
0.27995 	1.00001 	-0.0168063 	0 	0.0335855
0.2805 	1.00001 	-0.0168105 	0 	0.0336539
0.28105 	1.00001 	-0.0168149 	0 	0.0337224
0.2816 	1.00001 	-0.0168192 	0 	0.0337908
0.28215 	1.00001 	-0.0168235 	0 	0.0338593
0.2827 	1.00001 	-0.0168279 	0 	0.0339277
0.28325 	1.00001 	-0.0168322 	0 	0.0339962
0.2838 	1.00001 	-0.0168365 	0 	0.0340646
0.28435 	1.00001 	-0.0168409 	0 	0.0341331
0.2849 	1.00001 	-0.0168452 	0 	0.0342015
0.28545 	1.00001 	-0.0168496 	0 	0.03427
0.286 	1.00001 	-0.0168539 	0 	0.0343384
0.28655 	1.00001 	-0.0168582 	0 	0.0344069
0.2871 	1.00001 	-0.0168626 	0 	0.0344753
0.28765 	1.00001 	-0.0168669 	0 	0.0345437
0.2882 	1.00001 	-0.0168712 	0 	0.0346122
0.28875 	1.00001 	-0.0168756 	0 	0.0346806
0.2893 	1.00001 	-0.0168799 	0 	0.0347491
0.28985 	1.00001 	-0.0168842 	0 	0.0348175
0.2904 	1.00001 	-0.0168891 	0 	0.0348863
0.29095 	1.00001 	-0.0168941 	0 	0.0349553
0.2915 	1.00001 	-0.0168991 	0 	0.0350243
0.29205 	1.00001 	-0.016904 	0 	0.0350932
0.2926 	1.00001 	-0.016909 	0 	0.0351622
0.29315 	1.00001 	-0.016914 	0 	0.0352311
0.2937 	1.00001 	-0.016919 	0 	0.0353001
0.29425 	1.00001 	-0.016924 	0 	0.035369
0.2948 	1.00001 	-0.016929 	0 	0.035438
0.29535 	1.00001 	-0.016934 	0 	0.0355069
0.2959 	1.00001 	-0.016939 	0 	0.0355759
0.29645 	1.00001 	-0.016944 	0 	0.0356448
0.297 	1.00001 	-0.016949 	0 	0.0357138
0.29755 	1.00001 	-0.016954 	0 	0.0357828
0.2981 	1.00001 	-0.016959 	0 	0.0358517
0.29865 	1.00001 	-0.016964 	0 	0.0359207
0.2992 	1.00001 	-0.016969 	0 	0.0359896
0.29975 	1.00001 	-0.016974 	0 	0.0360586
0.3003 	1.00001 	-0.0169793 	0 	0.0361278
0.30085 	1.00001 	-0.016985 	0 	0.0361973
0.3014 	1.00001 	-0.0169907 	0 	0.0362668
0.30195 	1.00001 	-0.0169963 	0 	0.0363363
0.3025 	1.00001 	-0.017002 	0 	0.0364058
0.30305 	1.00001 	-0.0170077 	0 	0.0364753
0.3036 	1.00001 	-0.0170133 	0 	0.0365448
0.30415 	1.00001 	-0.017019 	0 	0.0366143
0.3047 	1.00001 	-0.0170247 	0 	0.0366838
0.30525 	1.00001 	-0.0170303 	0 	0.0367533
0.3058 	1.00001 	-0.017036 	0 	0.0368228
0.30635 	1.00001 	-0.0170417 	0 	0.0368923
0.3069 	1.00001 	-0.0170473 	0 	0.0369618
0.30745 	1.00001 	-0.017053 	0 	0.0370313
0.308 	1.00001 	-0.0170587 	0 	0.0371008
0.30855 	1.00001 	-0.0170643 	0 	0.0371703
0.3091 	1.00001 	-0.01707 	0 	0.0372398
0.30965 	1.00001 	-0.0170757 	0 	0.0373093
0.3102 	1.00001 	-0.0170816 	0 	0.037379
0.31075 	1.00001 	-0.0170879 	0 	0.037449
0.3113 	1.00001 	-0.0170943 	0 	0.0375191
0.31185 	1.00001 	-0.0171006 	0 	0.0375892
0.3124 	1.00001 	-0.017107 	0 	0.0376593
0.31295 	1.00001 	-0.0171133 	0 	0.0377294
0.3135 	1.00001 	-0.0171197 	0 	0.0377994
0.31405 	1.00001 	-0.017126 	0 	0.0378695
0.3146 	1.00001 	-0.0171324 	0 	0.0379396
0.31515 	1.00001 	-0.0171387 	0 	0.0380097
0.3157 	1.00001 	-0.0171451 	0 	0.0380797
0.31625 	1.00001 	-0.0171514 	0 	0.0381498
0.3168 	1.00001 	-0.0171578 	0 	0.0382199
0.31735 	1.00001 	-0.0171641 	0 	0.03829
0.3179 	1.00001 	-0.0171705 	0 	0.03836
0.31845 	1.00001 	-0.0171768 	0 	0.0384301
0.319 	1.00001 	-0.0171832 	0 	0.0385002
0.31955 	1.00001 	-0.0171895 	0 	0.0385703
0.3201 	1.00001 	-0.017196 	0 	0.0386405
0.32065 	1.00001 	-0.017203 	0 	0.0387111
0.3212 	1.00001 	-0.0172101 	0 	0.0387818
0.32175 	1.00001 	-0.0172171 	0 	0.0388525
0.3223 	1.00001 	-0.0172242 	0 	0.0389232
0.32285 	1.00001 	-0.0172312 	0 	0.0389939
0.3234 	1.00001 	-0.0172382 	0 	0.0390646
0.32395 	1.00001 	-0.0172453 	0 	0.0391353
0.3245 	1.00001 	-0.0172523 	0 	0.039206
0.32505 	1.00001 	-0.0172594 	0 	0.0392766
0.3256 	1.00001 	-0.0172664 	0 	0.0393473
0.32615 	1.00001 	-0.0172735 	0 	0.039418
0.3267 	1.00001 	-0.0172805 	0 	0.0394887
0.32725 	1.00001 	-0.0172875 	0 	0.0395594
0.3278 	1.00001 	-0.0172946 	0 	0.0396301
0.32835 	1.00001 	-0.0173016 	0 	0.0397008
0.3289 	1.00001 	-0.0173087 	0 	0.0397714
0.32945 	1.00001 	-0.0173157 	0 	0.0398421
0.33 	1.00001 	-0.0173227 	0 	0.0399128
0.33055 	1.00001 	-0.0173305 	0 	0.0399841
0.3311 	1.00001 	-0.0173382 	0 	0.0400555
0.33165 	1.00001 	-0.017346 	0 	0.0401268
0.3322 	1.00001 	-0.0173537 	0 	0.0401981
0.33275 	1.00001 	-0.0173615 	0 	0.0402694
0.3333 	1.00001 	-0.0173692 	0 	0.0403408
0.33385 	1.00001 	-0.0173769 	0 	0.0404121
0.3344 	1.00001 	-0.0173847 	0 	0.0404834
0.33495 	1.00001 	-0.0173924 	0 	0.0405548
0.3355 	1.00001 	-0.0174002 	0 	0.0406261
0.33605 	1.00001 	-0.0174079 	0 	0.0406974
0.3366 	1.00001 	-0.0174157 	0 	0.0407687
0.33715 	1.00001 	-0.0174234 	0 	0.0408401
0.3377 	1.00001 	-0.0174312 	0 	0.0409114
0.33825 	1.00001 	-0.0174389 	0 	0.0409827
0.3388 	1.00001 	-0.0174467 	0 	0.041054
0.33935 	1.00001 	-0.0174544 	0 	0.0411254
0.3399 	1.00001 	-0.0174621 	0 	0.0411967
0.34045 	1.00001 	-0.0174705 	0 	0.0412686
0.341 	1.00001 	-0.017479 	0 	0.0413406
0.34155 	1.00001 	-0.0174874 	0 	0.0414126
0.3421 	1.00001 	-0.0174959 	0 	0.0414846
0.34265 	1.00001 	-0.0175044 	0 	0.0415566
0.3432 	1.00001 	-0.0175128 	0 	0.0416286
0.34375 	1.00001 	-0.0175213 	0 	0.0417006
0.3443 	1.00001 	-0.0175298 	0 	0.0417726
0.34485 	1.00001 	-0.0175382 	0 	0.0418446
0.3454 	1.00001 	-0.0175467 	0 	0.0419166
0.34595 	1.00001 	-0.0175552 	0 	0.0419886
0.3465 	1.00001 	-0.0175636 	0 	0.0420605
0.34705 	1.00001 	-0.0175721 	0 	0.0421325
0.3476 	1.00001 	-0.0175806 	0 	0.0422045
0.34815 	1.00001 	-0.017589 	0 	0.0422765
0.3487 	1.00001 	-0.0175975 	0 	0.0423485
0.34925 	1.00001 	-0.017606 	0 	0.0424205
0.3498 	1.00001 	-0.0176144 	0 	0.0424925
0.35035 	1.00001 	-0.0176234 	0 	0.042565
0.3509 	1.00001 	-0.0176326 	0 	0.0426377
0.35145 	1.00001 	-0.0176418 	0 	0.0427104
0.352 	1.00001 	-0.017651 	0 	0.0427831
0.35255 	1.00001 	-0.0176602 	0 	0.0428558
0.3531 	1.00001 	-0.0176694 	0 	0.0429285
0.35365 	1.00001 	-0.0176786 	0 	0.0430012
0.3542 	1.00001 	-0.0176878 	0 	0.043074
0.35475 	1.00001 	-0.017697 	0 	0.0431467
0.3553 	1.00001 	-0.0177062 	0 	0.0432194
0.35585 	1.00001 	-0.0177154 	0 	0.0432921
0.3564 	1.00001 	-0.0177246 	0 	0.0433648
0.35695 	1.00001 	-0.0177339 	0 	0.0434375
0.3575 	1.00001 	-0.0177431 	0 	0.0435102
0.35805 	1.00001 	-0.0177523 	0 	0.0435829
0.3586 	1.00001 	-0.0177615 	0 	0.0436556
0.35915 	1.00001 	-0.0177707 	0 	0.0437283
0.3597 	1.00001 	-0.0177799 	0 	0.043801
0.36025 	1.00001 	-0.0177894 	0 	0.0438741
0.3608 	1.00001 	-0.0177994 	0 	0.0439475
0.36135 	1.00001 	-0.0178094 	0 	0.044021
0.3619 	1.00001 	-0.0178193 	0 	0.0440945
0.36245 	1.00001 	-0.0178293 	0 	0.0441679
0.363 	1.00001 	-0.0178392 	0 	0.0442414
0.36355 	1.00001 	-0.0178492 	0 	0.0443148
0.3641 	1.00001 	-0.0178592 	0 	0.0443883
0.36465 	1.00001 	-0.0178691 	0 	0.0444617
0.3652 	1.00001 	-0.0178791 	0 	0.0445352
0.36575 	1.00001 	-0.017889 	0 	0.0446086
0.3663 	1.00001 	-0.017899 	0 	0.0446821
0.36685 	1.00001 	-0.017909 	0 	0.0447555
0.3674 	1.00001 	-0.0179189 	0 	0.044829
0.36795 	1.00001 	-0.0179289 	0 	0.0449024
0.3685 	1.00001 	-0.0179388 	0 	0.0449759
0.36905 	1.00001 	-0.0179488 	0 	0.0450493
0.3696 	1.00001 	-0.0179588 	0 	0.0451228
0.37015 	1.00001 	-0.0179689 	0 	0.0451965
0.3707 	1.00001 	-0.0179796 	0 	0.0452707
0.37125 	1.00001 	-0.0179904 	0 	0.0453449
0.3718 	1.00001 	-0.0180011 	0 	0.0454191
0.37235 	1.00001 	-0.0180118 	0 	0.0454934
0.3729 	1.00001 	-0.0180226 	0 	0.0455676
0.37345 	1.00001 	-0.0180333 	0 	0.0456418
0.374 	1.00001 	-0.018044 	0 	0.045716
0.37455 	1.00001 	-0.0180547 	0 	0.0457903
0.3751 	1.00001 	-0.0180655 	0 	0.0458645
0.37565 	1.00001 	-0.0180762 	0 	0.0459387
0.3762 	1.00001 	-0.0180869 	0 	0.046013
0.37675 	1.00001 	-0.0180977 	0 	0.0460872
0.3773 	1.00001 	-0.0181084 	0 	0.0461614
0.37785 	1.00001 	-0.0181191 	0 	0.0462356
0.3784 	1.00001 	-0.0181298 	0 	0.0463099
0.37895 	1.00001 	-0.0181406 	0 	0.0463841
0.3795 	1.00001 	-0.0181513 	0 	0.0464583
0.38005 	1.00001 	-0.0181621 	0 	0.0465326
0.3806 	1.00001 	-0.0181736 	0 	0.0466077
0.38115 	1.00001 	-0.0181851 	0 	0.0466827
0.3817 	1.00001 	-0.0181966 	0 	0.0467577
0.38225 	1.00001 	-0.0182082 	0 	0.0468328
0.3828 	1.00001 	-0.0182197 	0 	0.0469078
0.38335 	1.00001 	-0.0182312 	0 	0.0469829
0.3839 	1.00001 	-0.0182427 	0 	0.0470579
0.38445 	1.00001 	-0.0182542 	0 	0.0471329
0.385 	1.00001 	-0.0182657 	0 	0.047208
0.38555 	1.00001 	-0.0182772 	0 	0.047283
0.3861 	1.00001 	-0.0182887 	0 	0.0473581
0.38665 	1.00001 	-0.0183003 	0 	0.0474331
0.3872 	1.00001 	-0.0183118 	0 	0.0475081
0.38775 	1.00001 	-0.0183233 	0 	0.0475832