0 	1.00069 	0 	0 	0
0.00055 	1.0007 	0.00209627 	0 	6.70154e-05
0.0011 	1.0007 	0.00419254 	0 	0.000134031
0.00165 	1.00071 	0.00628882 	0 	0.000201046
0.0022 	1.00072 	0.00838509 	0 	0.000268061
0.00275 	1.00073 	0.0104814 	0 	0.000335077
0.0033 	1.00074 	0.0125776 	0 	0.000402092
0.00385 	1.00074 	0.0146739 	0 	0.000469108
0.0044 	1.00075 	0.0167702 	0 	0.000536123
0.00495 	1.00076 	0.0188664 	0 	0.000603138
0.0055 	1.00077 	0.0209627 	0 	0.000670154
0.00605 	1.00078 	0.023059 	0 	0.000737169
0.0066 	1.00078 	0.0251553 	0 	0.000804184
0.00715 	1.00079 	0.0272515 	0 	0.0008712
0.0077 	1.0008 	0.0293478 	0 	0.000938215
0.00825 	1.00081 	0.0314441 	0 	0.00100523
0.0088 	1.00081 	0.0335403 	0 	0.00107225
0.00935 	1.00082 	0.0356366 	0 	0.00113926
0.0099 	1.00083 	0.0377329 	0 	0.00120628
0.01045 	1.00084 	0.0393046 	0 	0.00127378
0.011 	1.00086 	0.0407597 	0 	0.00134139
0.01155 	1.00087 	0.0422148 	0 	0.00140901
0.0121 	1.00088 	0.0436699 	0 	0.00147662
0.01265 	1.0009 	0.045125 	0 	0.00154423
0.0132 	1.00091 	0.0465802 	0 	0.00161184
0.01375 	1.00093 	0.0480353 	0 	0.00167946
0.0143 	1.00094 	0.0494904 	0 	0.00174707
0.01485 	1.00095 	0.0509455 	0 	0.00181468
0.0154 	1.00097 	0.0524006 	0 	0.00188229
0.01595 	1.00098 	0.0538557 	0 	0.00194991
0.0165 	1.00099 	0.0553109 	0 	0.00201752
0.01705 	1.00101 	0.056766 	0 	0.00208513
0.0176 	1.00102 	0.0582211 	0 	0.00215274
0.01815 	1.00103 	0.0596762 	0 	0.00222036
0.0187 	1.00105 	0.0611313 	0 	0.00228797
0.01925 	1.00106 	0.0625864 	0 	0.00235558
0.0198 	1.00108 	0.0640416 	0 	0.0024232
0.02035 	1.00109 	0.0649646 	0 	0.00252368
0.0209 	1.0011 	0.0655836 	0 	0.00264295
0.02145 	1.0011 	0.0662026 	0 	0.00276222
0.022 	1.00111 	0.0668216 	0 	0.00288148
0.02255 	1.00112 	0.0674405 	0 	0.00300075
0.0231 	1.00113 	0.0680595 	0 	0.00312002
0.02365 	1.00114 	0.0686785 	0 	0.00323929
0.0242 	1.00115 	0.0692975 	0 	0.00335856
0.02475 	1.00116 	0.0699165 	0 	0.00347783
0.0253 	1.00117 	0.0705355 	0 	0.00359709
0.02585 	1.00118 	0.0711545 	0 	0.00371636
0.0264 	1.00118 	0.0717735 	0 	0.00383563
0.02695 	1.00119 	0.0723924 	0 	0.0039549
0.0275 	1.0012 	0.0730114 	0 	0.00407417
0.02805 	1.00121 	0.0736304 	0 	0.00419344
0.0286 	1.00122 	0.0742494 	0 	0.0043127
0.02915 	1.00123 	0.0748684 	0 	0.00443197
0.0297 	1.00124 	0.0754874 	0 	0.00455124
0.03025 	1.00124 	0.0759339 	0 	0.00467989
0.0308 	1.00125 	0.0761734 	0 	0.00481979
0.03135 	1.00125 	0.076413 	0 	0.0049597
0.0319 	1.00126 	0.0766525 	0 	0.0050996
0.03245 	1.00126 	0.0768921 	0 	0.00523951
0.033 	1.00127 	0.0771316 	0 	0.00537941
0.03355 	1.00127 	0.0773712 	0 	0.00551932
0.0341 	1.00128 	0.0776107 	0 	0.00565922
0.03465 	1.00128 	0.0778502 	0 	0.00579913
0.0352 	1.00128 	0.0780898 	0 	0.00593903
0.03575 	1.00129 	0.0783293 	0 	0.00607893
0.0363 	1.00129 	0.0785689 	0 	0.00621884
0.03685 	1.0013 	0.0788084 	0 	0.00635874
0.0374 	1.0013 	0.079048 	0 	0.00649865
0.03795 	1.00131 	0.0792875 	0 	0.00663855
0.0385 	1.00131 	0.0795271 	0 	0.00677846
0.03905 	1.00131 	0.0797666 	0 	0.00691836
0.0396 	1.00132 	0.0800061 	0 	0.00705827
0.04015 	1.00132 	0.0801761 	0 	0.00720164
0.0407 	1.00132 	0.0801606 	0 	0.00735429
0.04125 	1.00132 	0.0801451 	0 	0.00750693
0.0418 	1.00133 	0.0801296 	0 	0.00765957
0.04235 	1.00133 	0.0801141 	0 	0.00781221
0.0429 	1.00133 	0.0800986 	0 	0.00796486
0.04345 	1.00133 	0.0800831 	0 	0.0081175
0.044 	1.00133 	0.0800676 	0 	0.00827014
0.04455 	1.00133 	0.0800521 	0 	0.00842278
0.0451 	1.00133 	0.0800366 	0 	0.00857542
0.04565 	1.00133 	0.0800211 	0 	0.00872807
0.0462 	1.00134 	0.0800056 	0 	0.00888071
0.04675 	1.00134 	0.0799901 	0 	0.00903335
0.0473 	1.00134 	0.0799746 	0 	0.00918599
0.04785 	1.00134 	0.0799591 	0 	0.00933864
0.0484 	1.00134 	0.0799436 	0 	0.00949128
0.04895 	1.00134 	0.0799281 	0 	0.00964392
0.0495 	1.00134 	0.0799126 	0 	0.00979656
0.05005 	1.00134 	0.079882 	0 	0.00994945
0.0506 	1.00134 	0.0797002 	0 	0.0101048
0.05115 	1.00134 	0.0795183 	0 	0.0102602
0.0517 	1.00134 	0.0793365 	0 	0.0104156
0.05225 	1.00134 	0.0791547 	0 	0.010571
0.0528 	1.00134 	0.0789728 	0 	0.0107264
0.05335 	1.00134 	0.078791 	0 	0.0108817
0.0539 	1.00134 	0.0786092 	0 	0.0110371
0.05445 	1.00134 	0.0784273 	0 	0.0111925
0.055 	1.00134 	0.0782455 	0 	0.0113479
0.05555 	1.00134 	0.0780636 	0 	0.0115033
0.0561 	1.00134 	0.0778818 	0 	0.0116587
0.05665 	1.00134 	0.0777 	0 	0.011814
0.0572 	1.00134 	0.0775181 	0 	0.0119694
0.05775 	1.00134 	0.0773363 	0 	0.0121248
0.0583 	1.00133 	0.0771545 	0 	0.0122802
0.05885 	1.00133 	0.0769726 	0 	0.0124356
0.0594 	1.00133 	0.0767908 	0 	0.0125909
0.05995 	1.00133 	0.076609 	0 	0.0127463
0.0605 	1.00133 	0.076337 	0 	0.0129007
0.06105 	1.00133 	0.0760561 	0 	0.0130549
0.0616 	1.00133 	0.0757752 	0 	0.0132092
0.06215 	1.00133 	0.0754943 	0 	0.0133634
0.0627 	1.00132 	0.0752134 	0 	0.0135177
0.06325 	1.00132 	0.0749324 	0 	0.0136719
0.0638 	1.00132 	0.0746515 	0 	0.0138262
0.06435 	1.00132 	0.0743706 	0 	0.0139804
0.0649 	1.00132 	0.0740897 	0 	0.0141346
0.06545 	1.00131 	0.0738088 	0 	0.0142889
0.066 	1.00131 	0.0735278 	0 	0.0144431
0.06655 	1.00131 	0.0732469 	0 	0.0145974
0.0671 	1.00131 	0.072966 	0 	0.0147516
0.06765 	1.00131 	0.0726851 	0 	0.0149059
0.0682 	1.00131 	0.0724041 	0 	0.0150601
0.06875 	1.0013 	0.0721232 	0 	0.0152144
0.0693 	1.0013 	0.0718423 	0 	0.0153686
0.06985 	1.0013 	0.0715614 	0 	0.0155228
0.0704 	1.0013 	0.0712438 	0 	0.015673
0.07095 	1.0013 	0.0709124 	0 	0.0158216
0.0715 	1.00129 	0.070581 	0 	0.0159702
0.07205 	1.00129 	0.0702497 	0 	0.0161187
0.0726 	1.00129 	0.0699183 	0 	0.0162673
0.07315 	1.00129 	0.069587 	0 	0.0164159
0.0737 	1.00128 	0.0692556 	0 	0.0165645
0.07425 	1.00128 	0.0689242 	0 	0.0167131
0.0748 	1.00128 	0.0685929 	0 	0.0168617
0.07535 	1.00128 	0.0682615 	0 	0.0170103
0.0759 	1.00127 	0.0679301 	0 	0.0171589
0.07645 	1.00127 	0.0675988 	0 	0.0173075
0.077 	1.00127 	0.0672674 	0 	0.0174561
0.07755 	1.00127 	0.066936 	0 	0.0176046
0.0781 	1.00126 	0.0666047 	0 	0.0177532
0.07865 	1.00126 	0.0662733 	0 	0.0179018
0.0792 	1.00126 	0.0659419 	0 	0.0180504
0.07975 	1.00126 	0.0656106 	0 	0.018199
0.0803 	1.00125 	0.0652702 	0 	0.018343
0.08085 	1.00125 	0.0649224 	0 	0.0184831
0.0814 	1.00125 	0.0645745 	0 	0.0186233
0.08195 	1.00124 	0.0642267 	0 	0.0187634
0.0825 	1.00124 	0.0638789 	0 	0.0189036
0.08305 	1.00124 	0.063531 	0 	0.0190437
0.0836 	1.00124 	0.0631832 	0 	0.0191839
0.08415 	1.00123 	0.0628354 	0 	0.019324
0.0847 	1.00123 	0.0624875 	0 	0.0194642
0.08525 	1.00123 	0.0621397 	0 	0.0196043
0.0858 	1.00122 	0.0617918 	0 	0.0197445
0.08635 	1.00122 	0.061444 	0 	0.0198846
0.0869 	1.00122 	0.0610962 	0 	0.0200248
0.08745 	1.00122 	0.0607483 	0 	0.0201649
0.088 	1.00121 	0.0604005 	0 	0.0203051
0.08855 	1.00121 	0.0600527 	0 	0.0204452
0.0891 	1.00121 	0.0597048 	0 	0.0205854
0.08965 	1.0012 	0.059357 	0 	0.0207255
0.0902 	1.0012 	0.059012 	0 	0.0208615
0.09075 	1.0012 	0.058672 	0 	0.0209901
0.0913 	1.0012 	0.058332 	0 	0.0211187
0.09185 	1.00119 	0.0579919 	0 	0.0212474
0.0924 	1.00119 	0.0576519 	0 	0.021376
0.09295 	1.00119 	0.0573119 	0 	0.0215046
0.0935 	1.00118 	0.0569719 	0 	0.0216332
0.09405 	1.00118 	0.0566319 	0 	0.0217619
0.0946 	1.00118 	0.0562919 	0 	0.0218905
0.09515 	1.00117 	0.0559518 	0 	0.0220191
0.0957 	1.00117 	0.0556118 	0 	0.0221477
0.09625 	1.00117 	0.0552718 	0 	0.0222764
0.0968 	1.00117 	0.0549318 	0 	0.022405
0.09735 	1.00116 	0.0545918 	0 	0.0225336
0.0979 	1.00116 	0.0542518 	0 	0.0226622
0.09845 	1.00116 	0.0539118 	0 	0.0227909
0.099 	1.00115 	0.0535717 	0 	0.0229195
0.09955 	1.00115 	0.0532317 	0 	0.0230481
0.1001 	1.00115 	0.0528966 	0 	0.023174
0.10065 	1.00115 	0.0525835 	0 	0.0232875
0.1012 	1.00114 	0.0522704 	0 	0.0234011
0.10175 	1.00114 	0.0519573 	0 	0.0235146
0.1023 	1.00114 	0.0516442 	0 	0.0236281
0.10285 	1.00113 	0.0513311 	0 	0.0237416
0.1034 	1.00113 	0.051018 	0 	0.0238552
0.10395 	1.00113 	0.0507049 	0 	0.0239687
0.1045 	1.00113 	0.0503918 	0 	0.0240822
0.10505 	1.00112 	0.0500787 	0 	0.0241958
0.1056 	1.00112 	0.0497657 	0 	0.0243093
0.10615 	1.00112 	0.0494526 	0 	0.0244228
0.1067 	1.00111 	0.0491395 	0 	0.0245363
0.10725 	1.00111 	0.0488264 	0 	0.0246499
0.1078 	1.00111 	0.0485133 	0 	0.0247634
0.10835 	1.00111 	0.0482002 	0 	0.0248769
0.1089 	1.0011 	0.0478871 	0 	0.0249904
0.10945 	1.0011 	0.047574 	0 	0.025104
0.11 	1.0011 	0.0472609 	0 	0.0252175
0.11055 	1.00109 	0.0469889 	0 	0.0253132
0.1111 	1.00109 	0.0467169 	0 	0.0254089
0.11165 	1.00109 	0.0464448 	0 	0.0255045
0.1122 	1.00109 	0.0461728 	0 	0.0256002
0.11275 	1.00108 	0.0459008 	0 	0.0256959
0.1133 	1.00108 	0.0456288 	0 	0.0257916
0.11385 	1.00108 	0.0453568 	0 	0.0258872
0.1144 	1.00107 	0.0450848 	0 	0.0259829
0.11495 	1.00107 	0.0448128 	0 	0.0260786
0.1155 	1.00107 	0.0445407 	0 	0.0261743
0.11605 	1.00107 	0.0442687 	0 	0.0262699
0.1166 	1.00106 	0.0439967 	0 	0.0263656
0.11715 	1.00106 	0.0437247 	0 	0.0264613
0.1177 	1.00106 	0.0434527 	0 	0.026557
0.11825 	1.00106 	0.0431807 	0 	0.0266527
0.1188 	1.00105 	0.0429086 	0 	0.0267483
0.11935 	1.00105 	0.0426366 	0 	0.026844
0.1199 	1.00105 	0.0423646 	0 	0.0269397
0.12045 	1.00104 	0.0421314 	0 	0.0270204
0.121 	1.00104 	0.0419067 	0 	0.0270978
0.12155 	1.00104 	0.0416821 	0 	0.0271753
0.1221 	1.00104 	0.0414575 	0 	0.0272527
0.12265 	1.00103 	0.0412329 	0 	0.0273301
0.1232 	1.00103 	0.0410083 	0 	0.0274075
0.12375 	1.00103 	0.0407836 	0 	0.0274849
0.1243 	1.00103 	0.040559 	0 	0.0275624
0.12485 	1.00102 	0.0403344 	0 	0.0276398
0.1254 	1.00102 	0.0401098 	0 	0.0277172
0.12595 	1.00102 	0.0398852 	0 	0.0277946
0.1265 	1.00102 	0.0396605 	0 	0.0278721
0.12705 	1.00101 	0.0394359 	0 	0.0279495
0.1276 	1.00101 	0.0392113 	0 	0.0280269
0.12815 	1.00101 	0.0389867 	0 	0.0281043
0.1287 	1.00101 	0.038762 	0 	0.0281817
0.12925 	1.001 	0.0385374 	0 	0.0282592
0.1298 	1.001 	0.0383128 	0 	0.0283366
0.13035 	1.001 	0.0381161 	0 	0.028404
0.1309 	1.001 	0.0379354 	0 	0.0284658
0.13145 	1.001 	0.0377546 	0 	0.0285276
0.132 	1.00099 	0.0375739 	0 	0.0285894
0.13255 	1.00099 	0.0373932 	0 	0.0286511
0.1331 	1.00099 	0.0372124 	0 	0.0287129
0.13365 	1.00099 	0.0370317 	0 	0.0287747
0.1342 	1.00098 	0.036851 	0 	0.0288365
0.13475 	1.00098 	0.0366702 	0 	0.0288982
0.1353 	1.00098 	0.0364895 	0 	0.02896
0.13585 	1.00098 	0.0363088 	0 	0.0290218
0.1364 	1.00097 	0.036128 	0 	0.0290836
0.13695 	1.00097 	0.0359473 	0 	0.0291453
0.1375 	1.00097 	0.0357666 	0 	0.0292071
0.13805 	1.00097 	0.0355858 	0 	0.0292689
0.1386 	1.00097 	0.0354051 	0 	0.0293307
0.13915 	1.00096 	0.0352244 	0 	0.0293924
0.1397 	1.00096 	0.0350436 	0 	0.0294542
0.14025 	1.00096 	0.0348777 	0 	0.0295111
0.1408 	1.00096 	0.0347294 	0 	0.029562
0.14135 	1.00096 	0.0345811 	0 	0.029613
0.1419 	1.00095 	0.0344328 	0 	0.0296639
0.14245 	1.00095 	0.0342845 	0 	0.0297148
0.143 	1.00095 	0.0341362 	0 	0.0297658
0.14355 	1.00095 	0.0339879 	0 	0.0298167
0.1441 	1.00095 	0.0338396 	0 	0.0298677
0.14465 	1.00094 	0.0336913 	0 	0.0299186
0.1452 	1.00094 	0.033543 	0 	0.0299695
0.14575 	1.00094 	0.0333947 	0 	0.0300205
0.1463 	1.00094 	0.0332464 	0 	0.0300714
0.14685 	1.00094 	0.0330981 	0 	0.0301224
0.1474 	1.00093 	0.0329498 	0 	0.0301733
0.14795 	1.00093 	0.0328015 	0 	0.0302242
0.1485 	1.00093 	0.0326532 	0 	0.0302752
0.14905 	1.00093 	0.0325049 	0 	0.0303261
0.1496 	1.00093 	0.0323566 	0 	0.0303771
0.15015 	1.00092 	0.0322133 	0 	0.0304265
0.1507 	1.00092 	0.0320831 	0 	0.0304719
0.15125 	1.00092 	0.031953 	0 	0.0305173
0.1518 	1.00092 	0.0318228 	0 	0.0305627
0.15235 	1.00092 	0.0316927 	0 	0.0306081
0.1529 	1.00091 	0.0315625 	0 	0.0306536
0.15345 	1.00091 	0.0314323 	0 	0.030699
0.154 	1.00091 	0.0313022 	0 	0.0307444
0.15455 	1.00091 	0.031172 	0 	0.0307898
0.1551 	1.00091 	0.0310419 	0 	0.0308352
0.15565 	1.00091 	0.0309117 	0 	0.0308806
0.1562 	1.0009 	0.0307816 	0 	0.030926
0.15675 	1.0009 	0.0306514 	0 	0.0309714
0.1573 	1.0009 	0.0305212 	0 	0.0310168
0.15785 	1.0009 	0.0303911 	0 	0.0310623
0.1584 	1.0009 	0.0302609 	0 	0.0311077
0.15895 	1.0009 	0.0301308 	0 	0.0311531
0.1595 	1.00089 	0.0300006 	0 	0.0311985
0.16005 	1.00089 	0.029871 	0 	0.0312438
0.1606 	1.00089 	0.029747 	0 	0.0312879
0.16115 	1.00089 	0.029623 	0 	0.031332
0.1617 	1.00089 	0.0294989 	0 	0.0313762
0.16225 	1.00089 	0.0293749 	0 	0.0314203
0.1628 	1.00088 	0.0292509 	0 	0.0314644
0.16335 	1.00088 	0.0291268 	0 	0.0315085
0.1639 	1.00088 	0.0290028 	0 	0.0315526
0.16445 	1.00088 	0.0288788 	0 	0.0315968
0.165 	1.00088 	0.0287548 	0 	0.0316409
0.16555 	1.00088 	0.0286307 	0 	0.031685
0.1661 	1.00087 	0.0285067 	0 	0.0317291
0.16665 	1.00087 	0.0283827 	0 	0.0317733
0.1672 	1.00087 	0.0282587 	0 	0.0318174
0.16775 	1.00087 	0.0281346 	0 	0.0318615
0.1683 	1.00087 	0.0280106 	0 	0.0319056
0.16885 	1.00087 	0.0278866 	0 	0.0319498
0.1694 	1.00086 	0.0277625 	0 	0.0319939
0.16995 	1.00086 	0.0276385 	0 	0.032038
0.1705 	1.00086 	0.0275135 	0 	0.0320832
0.17105 	1.00086 	0.0273884 	0 	0.0321285
0.1716 	1.00086 	0.0272633 	0 	0.0321738
0.17215 	1.00086 	0.0271382 	0 	0.0322191
0.1727 	1.00086 	0.0270131 	0 	0.0322644
0.17325 	1.00085 	0.026888 	0 	0.0323097
0.1738 	1.00085 	0.0267629 	0 	0.032355
0.17435 	1.00085 	0.0266378 	0 	0.0324003
0.1749 	1.00085 	0.0265127 	0 	0.0324456
0.17545 	1.00085 	0.0263876 	0 	0.0324909
0.176 	1.00085 	0.0262625 	0 	0.0325362
0.17655 	1.00085 	0.0261374 	0 	0.0325815
0.1771 	1.00084 	0.0260123 	0 	0.0326268
0.17765 	1.00084 	0.0258872 	0 	0.0326721
0.1782 	1.00084 	0.0257621 	0 	0.0327174
0.17875 	1.00084 	0.025637 	0 	0.0327627
0.1793 	1.00084 	0.0255119 	0 	0.032808
0.17985 	1.00084 	0.0253868 	0 	0.0328533
0.1804 	1.00084 	0.025259 	0 	0.0329
0.18095 	1.00083 	0.0251301 	0 	0.0329474
0.1815 	1.00083 	0.0250012 	0 	0.0329947
0.18205 	1.00083 	0.0248723 	0 	0.033042
0.1826 	1.00083 	0.0247434 	0 	0.0330893
0.18315 	1.00083 	0.0246145 	0 	0.0331366
0.1837 	1.00083 	0.0244856 	0 	0.033184
0.18425 	1.00083 	0.0243566 	0 	0.0332313
0.1848 	1.00082 	0.0242277 	0 	0.0332786
0.18535 	1.00082 	0.0240988 	0 	0.0333259
0.1859 	1.00082 	0.0239699 	0 	0.0333732
0.18645 	1.00082 	0.023841 	0 	0.0334206
0.187 	1.00082 	0.0237121 	0 	0.0334679
0.18755 	1.00082 	0.0235832 	0 	0.0335152
0.1881 	1.00082 	0.0234543 	0 	0.0335625
0.18865 	1.00081 	0.0233254 	0 	0.0336098
0.1892 	1.00081 	0.0231965 	0 	0.0336572
0.18975 	1.00081 	0.0230676 	0 	0.0337045
0.1903 	1.00081 	0.0229366 	0 	0.0337528
0.19085 	1.00081 	0.0228039 	0 	0.0338021
0.1914 	1.00081 	0.0226711 	0 	0.0338513
0.19195 	1.00081 	0.0225384 	0 	0.0339006
0.1925 	1.00081 	0.0224056 	0 	0.0339498
0.19305 	1.0008 	0.0222729 	0 	0.033999
0.1936 	1.0008 	0.0221402 	0 	0.0340483
0.19415 	1.0008 	0.0220074 	0 	0.0340975
0.1947 	1.0008 	0.0218747 	0 	0.0341467
0.19525 	1.0008 	0.0217419 	0 	0.034196
0.1958 	1.0008 	0.0216092 	0 	0.0342452
0.19635 	1.0008 	0.0214765 	0 	0.0342945
0.1969 	1.00079 	0.0213437 	0 	0.0343437
0.19745 	1.00079 	0.021211 	0 	0.0343929
0.198 	1.00079 	0.0210782 	0 	0.0344422
0.19855 	1.00079 	0.0209455 	0 	0.0344914
0.1991 	1.00079 	0.0208128 	0 	0.0345407
0.19965 	1.00079 	0.02068 	0 	0.0345899
0.2002 	1.00079 	0.0205463 	0 	0.0346397
0.20075 	1.00079 	0.0204107 	0 	0.0346903
0.2013 	1.00078 	0.0202751 	0 	0.034741
0.20185 	1.00078 	0.0201395 	0 	0.0347917
0.2024 	1.00078 	0.020004 	0 	0.0348424
0.20295 	1.00078 	0.0198684 	0 	0.0348931
0.2035 	1.00078 	0.0197328 	0 	0.0349438
0.20405 	1.00078 	0.0195973 	0 	0.0349945
0.2046 	1.00078 	0.0194617 	0 	0.0350452
0.20515 	1.00078 	0.0193261 	0 	0.0350958
0.2057 	1.00077 	0.0191906 	0 	0.0351465
0.20625 	1.00077 	0.019055 	0 	0.0351972
0.2068 	1.00077 	0.0189194 	0 	0.0352479
0.20735 	1.00077 	0.0187839 	0 	0.0352986
0.2079 	1.00077 	0.0186483 	0 	0.0353493
0.20845 	1.00077 	0.0185127 	0 	0.0354
0.209 	1.00077 	0.0183772 	0 	0.0354507
0.20955 	1.00077 	0.0182416 	0 	0.0355014
0.2101 	1.00076 	0.0181057 	0 	0.0355522
0.21065 	1.00076 	0.0179683 	0 	0.0356038
0.2112 	1.00076 	0.017831 	0 	0.0356554
0.21175 	1.00076 	0.0176936 	0 	0.0357071
0.2123 	1.00076 	0.0175562 	0 	0.0357587
0.21285 	1.00076 	0.0174188 	0 	0.0358103
0.2134 	1.00076 	0.0172815 	0 	0.0358619
0.21395 	1.00076 	0.0171441 	0 	0.0359135
0.2145 	1.00075 	0.0170067 	0 	0.0359651
0.21505 	1.00075 	0.0168694 	0 	0.0360167
0.2156 	1.00075 	0.016732 	0 	0.0360684
0.21615 	1.00075 	0.0165946 	0 	0.03612
0.2167 	1.00075 	0.0164572 	0 	0.0361716
0.21725 	1.00075 	0.0163199 	0 	0.0362232
0.2178 	1.00075 	0.0161825 	0 	0.0362748
0.21835 	1.00075 	0.0160451 	0 	0.0363264
0.2189 	1.00074 	0.0159077 	0 	0.0363781
0.21945 	1.00074 	0.0157704 	0 	0.0364297
0.22 	1.00074 	0.015633 	0 	0.0364813
0.22055 	1.00074 	0.0154945 	0 	0.0365334
0.2211 	1.00074 	0.015356 	0 	0.0365856
0.22165 	1.00074 	0.0152175 	0 	0.0366378
0.2222 	1.00074 	0.015079 	0 	0.0366899
0.22275 	1.00074 	0.0149405 	0 	0.0367421
0.2233 	1.00073 	0.014802 	0 	0.0367942
0.22385 	1.00073 	0.0146635 	0 	0.0368464
0.2244 	1.00073 	0.0145249 	0 	0.0368986
0.22495 	1.00073 	0.0143864 	0 	0.0369507
0.2255 	1.00073 	0.0142479 	0 	0.0370029
0.22605 	1.00073 	0.0141094 	0 	0.037055
0.2266 	1.00073 	0.0139709 	0 	0.0371072
0.22715 	1.00073 	0.0138324 	0 	0.0371594
0.2277 	1.00072 	0.0136939 	0 	0.0372115
0.22825 	1.00072 	0.0135554 	0 	0.0372637
0.2288 	1.00072 	0.0134169 	0 	0.0373158
0.22935 	1.00072 	0.0132784 	0 	0.037368
0.2299 	1.00072 	0.0131399 	0 	0.0374202
0.23045 	1.00072 	0.0130007 	0 	0.0374726
0.231 	1.00072 	0.0128614 	0 	0.0375251
0.23155 	1.00072 	0.0127221 	0 	0.0375776
0.2321 	1.00072 	0.0125828 	0 	0.0376301
0.23265 	1.00071 	0.0124434 	0 	0.0376826
0.2332 	1.00071 	0.0123041 	0 	0.0377351
0.23375 	1.00071 	0.0121648 	0 	0.0377876
0.2343 	1.00071 	0.0120255 	0 	0.0378401
0.23485 	1.00071 	0.0118862 	0 	0.0378926
0.2354 	1.00071 	0.0117468 	0 	0.0379451
0.23595 	1.00071 	0.0116075 	0 	0.0379976
0.2365 	1.00071 	0.0114682 	0 	0.0380501
0.23705 	1.0007 	0.0113289 	0 	0.0381026
0.2376 	1.0007 	0.0111896 	0 	0.0381551
0.23815 	1.0007 	0.0110503 	0 	0.0382076
0.2387 	1.0007 	0.0109109 	0 	0.0382601
0.23925 	1.0007 	0.0107716 	0 	0.0383126
0.2398 	1.0007 	0.0106323 	0 	0.0383652
0.24035 	1.0007 	0.0104925 	0 	0.0384178
0.2409 	1.0007 	0.0103523 	0 	0.0384706
0.24145 	1.00069 	0.0102122 	0 	0.0385234
0.242 	1.00069 	0.0100721 	0 	0.0385762
0.24255 	1.00069 	0.00993196 	0 	0.038629
0.2431 	1.00069 	0.00979184 	0 	0.0386818
0.24365 	1.00069 	0.00965171 	0 	0.0387346
0.2442 	1.00069 	0.00951159 	0 	0.0387873
0.24475 	1.00069 	0.00937146 	0 	0.0388401
0.2453 	1.00069 	0.00923134 	0 	0.0388929
0.24585 	1.00068 	0.00909121 	0 	0.0389457
0.2464 	1.00068 	0.00895108 	0 	0.0389985
0.24695 	1.00068 	0.00881096 	0 	0.0390513
0.2475 	1.00068 	0.00867083 	0 	0.0391041
0.24805 	1.00068 	0.00853071 	0 	0.0391568
0.2486 	1.00068 	0.00839058 	0 	0.0392096
0.24915 	1.00068 	0.00825046 	0 	0.0392624
0.2497 	1.00068 	0.00811033 	0 	0.0393152
0.25025 	1.00068 	0.00796973 	0 	0.0393681
0.2508 	1.00067 	0.00782857 	0 	0.0394212
0.25135 	1.00067 	0.0076874 	0 	0.0394743
0.2519 	1.00067 	0.00754623 	0 	0.0395274
0.25245 	1.00067 	0.00740507 	0 	0.0395805
0.253 	1.00067 	0.0072639 	0 	0.0396336
0.25355 	1.00067 	0.00712273 	0 	0.0396866
0.2541 	1.00067 	0.00698156 	0 	0.0397397
0.25465 	1.00067 	0.0068404 	0 	0.0397928
0.2552 	1.00066 	0.00669923 	0 	0.0398459
0.25575 	1.00066 	0.00655806 	0 	0.039899
0.2563 	1.00066 	0.0064169 	0 	0.0399521
0.25685 	1.00066 	0.00627573 	0 	0.0400051
0.2574 	1.00066 	0.00613456 	0 	0.0400582
0.25795 	1.00066 	0.0059934 	0 	0.0401113
0.2585 	1.00066 	0.00585223 	0 	0.0401644
0.25905 	1.00066 	0.00571106 	0 	0.0402175
0.2596 	1.00065 	0.0055699 	0 	0.0402706
0.26015 	1.00065 	0.00542835 	0 	0.0403238
0.2607 	1.00065 	0.00528577 	0 	0.0403772
0.26125 	1.00065 	0.0051432 	0 	0.0404307
0.2618 	1.00065 	0.00500063 	0 	0.0404842
0.26235 	1.00065 	0.00485806 	0 	0.0405377
0.2629 	1.00065 	0.00471549 	0 	0.0405912
0.26345 	1.00065 	0.00457291 	0 	0.0406446
0.264 	1.00064 	0.00443034 	0 	0.0406981
0.26455 	1.00064 	0.00428777 	0 	0.0407516
0.2651 	1.00064 	0.0041452 	0 	0.0408051
0.26565 	1.00064 	0.00400263 	0 	0.0408586
0.2662 	1.00064 	0.00386005 	0 	0.040912
0.26675 	1.00064 	0.00371748 	0 	0.0409655
0.2673 	1.00064 	0.00357491 	0 	0.041019
0.26785 	1.00064 	0.00343234 	0 	0.0410725
0.2684 	1.00063 	0.00328977 	0 	0.041126
0.26895 	1.00063 	0.00314719 	0 	0.0411795
0.2695 	1.00063 	0.00300462 	0 	0.0412329
0.27005 	1.00063 	0.00286189 	0 	0.0412865
0.2706 	1.00063 	0.00271752 	0 	0.0413405
0.27115 	1.00063 	0.00257316 	0 	0.0413945
0.2717 	1.00063 	0.00242879 	0 	0.0414486
0.27225 	1.00063 	0.00228443 	0 	0.0415026
0.2728 	1.00062 	0.00214006 	0 	0.0415567
0.27335 	1.00062 	0.0019957 	0 	0.0416107
0.2739 	1.00062 	0.00185133 	0 	0.0416648
0.27445 	1.00062 	0.00170697 	0 	0.0417188
0.275 	1.00062 	0.0015626 	0 	0.0417728
0.27555 	1.00062 	0.00141823 	0 	0.0418269
0.2761 	1.00062 	0.00127387 	0 	0.0418809
0.27665 	1.00062 	0.0011295 	0 	0.041935
0.2772 	1.00061 	0.000985139 	0 	0.041989
0.27775 	1.00061 	0.000840774 	0 	0.0420431
0.2783 	1.00061 	0.000696408 	0 	0.0420971
0.27885 	1.00061 	0.000552043 	0 	0.0421511
0.2794 	1.00061 	0.000407678 	0 	0.0422052
0.27995 	1.00061 	0.000263313 	0 	0.0422592
0.2805 	1.00061 	0.000116994 	0 	0.0423139
0.28105 	1.00061 	-2.95189e-05 	0 	0.0423686
0.2816 	1.0006 	-0.000176032 	0 	0.0424234
0.28215 	1.0006 	-0.000322546 	0 	0.0424781
0.2827 	1.0006 	-0.000469059 	0 	0.0425329
0.28325 	1.0006 	-0.000615572 	0 	0.0425876
0.2838 	1.0006 	-0.000762086 	0 	0.0426424
0.28435 	1.0006 	-0.000908599 	0 	0.0426971
0.2849 	1.0006 	-0.00105511 	0 	0.0427518
0.28545 	1.0006 	-0.00120163 	0 	0.0428066
0.286 	1.00059 	-0.00134814 	0 	0.0428613
0.28655 	1.00059 	-0.00149465 	0 	0.0429161
0.2871 	1.00059 	-0.00164117 	0 	0.0429708
0.28765 	1.00059 	-0.00178768 	0 	0.0430256
0.2882 	1.00059 	-0.00193419 	0 	0.0430803
0.28875 	1.00059 	-0.00208071 	0 	0.0431351
0.2893 	1.00059 	-0.00222722 	0 	0.0431898
0.28985 	1.00059 	-0.00237373 	0 	0.0432445
0.2904 	1.00058 	-0.00252201 	0 	0.0432998
0.29095 	1.00058 	-0.00267095 	0 	0.0433554
0.2915 	1.00058 	-0.0028199 	0 	0.0434109
0.29205 	1.00058 	-0.00296884 	0 	0.0434664
0.2926 	1.00058 	-0.00311778 	0 	0.0435219
0.29315 	1.00058 	-0.00326672 	0 	0.0435775
0.2937 	1.00058 	-0.00341566 	0 	0.043633
0.29425 	1.00058 	-0.0035646 	0 	0.0436885
0.2948 	1.00057 	-0.00371354 	0 	0.043744
0.29535 	1.00057 	-0.00386249 	0 	0.0437996
0.2959 	1.00057 	-0.00401143 	0 	0.0438551
0.29645 	1.00057 	-0.00416037 	0 	0.0439106
0.297 	1.00057 	-0.00430931 	0 	0.0439661
0.29755 	1.00057 	-0.00445825 	0 	0.0440217
0.2981 	1.00057 	-0.00460719 	0 	0.0440772
0.29865 	1.00056 	-0.00475614 	0 	0.0441327
0.2992 	1.00056 	-0.00490508 	0 	0.0441882
0.29975 	1.00056 	-0.00505402 	0 	0.0442438
0.3003 	1.00056 	-0.00520439 	0 	0.0442997
0.30085 	1.00056 	-0.00535595 	0 	0.044356
0.3014 	1.00056 	-0.00550751 	0 	0.0444123
0.30195 	1.00056 	-0.00565907 	0 	0.0444686
0.3025 	1.00056 	-0.00581063 	0 	0.0445249
0.30305 	1.00055 	-0.00596219 	0 	0.0445812
0.3036 	1.00055 	-0.00611375 	0 	0.0446375
0.30415 	1.00055 	-0.00626532 	0 	0.0446938
0.3047 	1.00055 	-0.00641688 	0 	0.0447501
0.30525 	1.00055 	-0.00656844 	0 	0.0448064
0.3058 	1.00055 	-0.00672 	0 	0.0448627
0.30635 	1.00055 	-0.00687156 	0 	0.044919
0.3069 	1.00054 	-0.00702312 	0 	0.0449753
0.30745 	1.00054 	-0.00717468 	0 	0.0450316
0.308 	1.00054 	-0.00732624 	0 	0.0450879
0.30855 	1.00054 	-0.0074778 	0 	0.0451442
0.3091 	1.00054 	-0.00762936 	0 	0.0452005
0.30965 	1.00054 	-0.00778093 	0 	0.0452568
0.3102 	1.00054 	-0.00793349 	0 	0.0453134
0.31075 	1.00054 	-0.00808783 	0 	0.0453705
0.3113 	1.00053 	-0.00824216 	0 	0.0454276
0.31185 	1.00053 	-0.00839649 	0 	0.0454847
0.3124 	1.00053 	-0.00855082 	0 	0.0455418
0.31295 	1.00053 	-0.00870515 	0 	0.0455989
0.3135 	1.00053 	-0.00885948 	0 	0.045656
0.31405 	1.00053 	-0.00901381 	0 	0.0457131
0.3146 	1.00053 	-0.00916814 	0 	0.0457702
0.31515 	1.00052 	-0.00932247 	0 	0.0458273
0.3157 	1.00052 	-0.0094768 	0 	0.0458844
0.31625 	1.00052 	-0.00963113 	0 	0.0459415
0.3168 	1.00052 	-0.00978547 	0 	0.0459986
0.31735 	1.00052 	-0.0099398 	0 	0.0460557
0.3179 	1.00052 	-0.0100941 	0 	0.0461128
0.31845 	1.00052 	-0.0102485 	0 	0.0461698
0.319 	1.00052 	-0.0104028 	0 	0.0462269
0.31955 	1.00051 	-0.0105571 	0 	0.046284
0.3201 	1.00051 	-0.010712 	0 	0.0463413
0.32065 	1.00051 	-0.0108692 	0 	0.0463992
0.3212 	1.00051 	-0.0110265 	0 	0.0464572
0.32175 	1.00051 	-0.0111838 	0 	0.0465152
0.3223 	1.00051 	-0.011341 	0 	0.0465731
0.32285 	1.00051 	-0.0114983 	0 	0.0466311
0.3234 	1.0005 	-0.0116555 	0 	0.046689
0.32395 	1.0005 	-0.0118128 	0 	0.046747
0.3245 	1.0005 	-0.01197 	0 	0.046805
0.32505 	1.0005 	-0.0121273 	0 	0.0468629
0.3256 	1.0005 	-0.0122846 	0 	0.0469209
0.32615 	1.0005 	-0.0124418 	0 	0.0469788
0.3267 	1.0005 	-0.0125991 	0 	0.0470368
0.32725 	1.00049 	-0.0127563 	0 	0.0470947
0.3278 	1.00049 	-0.0129136 	0 	0.0471527
0.32835 	1.00049 	-0.0130709 	0 	0.0472107
0.3289 	1.00049 	-0.0132281 	0 	0.0472686
0.32945 	1.00049 	-0.0133854 	0 	0.0473266
0.33 	1.00049 	-0.0135426 	0 	0.0473845
0.33055 	1.00049 	-0.013703 	0 	0.0474434
0.3311 	1.00048 	-0.0138634 	0 	0.0475023
0.33165 	1.00048 	-0.0140237 	0 	0.0475612
0.3322 	1.00048 	-0.0141841 	0 	0.04762
0.33275 	1.00048 	-0.0143445 	0 	0.0476789
0.3333 	1.00048 	-0.0145049 	0 	0.0477378
0.33385 	1.00048 	-0.0146652 	0 	0.0477967
0.3344 	1.00048 	-0.0148256 	0 	0.0478555
0.33495 	1.00048 	-0.014986 	0 	0.0479144
0.3355 	1.00047 	-0.0151464 	0 	0.0479733
0.33605 	1.00047 	-0.0153067 	0 	0.0480322
0.3366 	1.00047 	-0.0154671 	0 	0.0480911
0.33715 	1.00047 	-0.0156275 	0 	0.0481499
0.3377 	1.00047 	-0.0157878 	0 	0.0482088
0.33825 	1.00047 	-0.0159482 	0 	0.0482677
0.3388 	1.00047 	-0.0161086 	0 	0.0483266
0.33935 	1.00046 	-0.016269 	0 	0.0483854
0.3399 	1.00046 	-0.0164293 	0 	0.0484443
0.34045 	1.00046 	-0.0165924 	0 	0.048504
0.341 	1.00046 	-0.0167561 	0 	0.0485638
0.34155 	1.00046 	-0.0169198 	0 	0.0486236
0.3421 	1.00046 	-0.0170835 	0 	0.0486834
0.34265 	1.00046 	-0.0172472 	0 	0.0487432
0.3432 	1.00045 	-0.0174109 	0 	0.048803
0.34375 	1.00045 	-0.0175746 	0 	0.0488628
0.3443 	1.00045 	-0.0177383 	0 	0.0489226
0.34485 	1.00045 	-0.017902 	0 	0.0489824
0.3454 	1.00045 	-0.0180657 	0 	0.0490423
0.34595 	1.00045 	-0.0182294 	0 	0.0491021
0.3465 	1.00045 	-0.0183931 	0 	0.0491619
0.34705 	1.00044 	-0.0185567 	0 	0.0492217
0.3476 	1.00044 	-0.0187204 	0 	0.0492815
0.34815 	1.00044 	-0.0188841 	0 	0.0493413
0.3487 	1.00044 	-0.0190478 	0 	0.0494011
0.34925 	1.00044 	-0.0192115 	0 	0.0494609
0.3498 	1.00044 	-0.0193752 	0 	0.0495207
0.35035 	1.00044 	-0.0195411 	0 	0.0495812
0.3509 	1.00043 	-0.0197083 	0 	0.0496419
0.35145 	1.00043 	-0.0198755 	0 	0.0497027
0.352 	1.00043 	-0.0200427 	0 	0.0497635
0.35255 	1.00043 	-0.0202099 	0 	0.0498243
0.3531 	1.00043 	-0.0203771 	0 	0.0498851
0.35365 	1.00043 	-0.0205443 	0 	0.0499458
0.3542 	1.00043 	-0.0207115 	0 	0.0500066
0.35475 	1.00042 	-0.0208787 	0 	0.0500674
0.3553 	1.00042 	-0.0210459 	0 	0.0501282
0.35585 	1.00042 	-0.0212131 	0 	0.050189
0.3564 	1.00042 	-0.0213804 	0 	0.0502497
0.35695 	1.00042 	-0.0215476 	0 	0.0503105
0.3575 	1.00042 	-0.0217148 	0 	0.0503713
0.35805 	1.00041 	-0.021882 	0 	0.0504321
0.3586 	1.00041 	-0.0220492 	0 	0.0504928
0.35915 	1.00041 	-0.0222164 	0 	0.0505536
0.3597 	1.00041 	-0.0223836 	0 	0.0506144
0.36025 	1.00041 	-0.0225524 	0 	0.0506757
0.3608 	1.00041 	-0.0227233 	0 	0.0507375
0.36135 	1.00041 	-0.0228941 	0 	0.0507993
0.3619 	1.0004 	-0.0230649 	0 	0.0508611
0.36245 	1.0004 	-0.0232358 	0 	0.0509229
0.363 	1.0004 	-0.0234066 	0 	0.0509847
0.36355 	1.0004 	-0.0235774 	0 	0.0510465
0.3641 	1.0004 	-0.0237483 	0 	0.0511083
0.36465 	1.0004 	-0.0239191 	0 	0.0511701
0.3652 	1.0004 	-0.0240899 	0 	0.0512319
0.36575 	1.00039 	-0.0242608 	0 	0.0512937
0.3663 	1.00039 	-0.0244316 	0 	0.0513555
0.36685 	1.00039 	-0.0246024 	0 	0.0514173
0.3674 	1.00039 	-0.0247733 	0 	0.0514791
0.36795 	1.00039 	-0.0249441 	0 	0.0515409
0.3685 	1.00039 	-0.025115 	0 	0.0516027
0.36905 	1.00039 	-0.0252858 	0 	0.0516645
0.3696 	1.00038 	-0.0254566 	0 	0.0517263
0.37015 	1.00038 	-0.0256285 	0 	0.0517884
0.3707 	1.00038 	-0.0258029 	0 	0.0518512
0.37125 	1.00038 	-0.0259774 	0 	0.0519141
0.3718 	1.00038 	-0.0261519 	0 	0.0519769
0.37235 	1.00038 	-0.0263264 	0 	0.0520398
0.3729 	1.00038 	-0.0265009 	0 	0.0521026
0.37345 	1.00037 	-0.0266754 	0 	0.0521654
0.374 	1.00037 	-0.0268499 	0 	0.0522283
0.37455 	1.00037 	-0.0270244 	0 	0.0522911
0.3751 	1.00037 	-0.0271988 	0 	0.052354
0.37565 	1.00037 	-0.0273733 	0 	0.0524168
0.3762 	1.00037 	-0.0275478 	0 	0.0524796
0.37675 	1.00036 	-0.0277223 	0 	0.0525425
0.3773 	1.00036 	-0.0278968 	0 	0.0526053
0.37785 	1.00036 	-0.0280713 	0 	0.0526682
0.3784 	1.00036 	-0.0282458 	0 	0.052731
0.37895 	1.00036 	-0.0284203 	0 	0.0527938
0.3795 	1.00036 	-0.0285947 	0 	0.0528567
0.38005 	1.00036 	-0.0287696 	0 	0.0529196
0.3806 	1.00035 	-0.0289476 	0 	0.0529835
0.38115 	1.00035 	-0.0291257 	0 	0.0530473
0.3817 	1.00035 	-0.0293037 	0 	0.0531112
0.38225 	1.00035 	-0.0294818 	0 	0.053175
0.3828 	1.00035 	-0.0296598 	0 	0.0532389
0.38335 	1.00035 	-0.0298379 	0 	0.0533027
0.3839 	1.00035 	-0.030016 	0 	0.0533665
0.38445 	1.00034 	-0.030194 	0 	0.0534304
0.385 	1.00034 	-0.0303721 	0 	0.0534942
0.38555 	1.00034 	-0.0305501 	0 	0.0535581
0.3861 	1.00034 	-0.0307282 	0 	0.0536219
0.38665 	1.00034 	-0.0309062 	0 	0.0536858
0.3872 	1.00034 	-0.0310843 	0 	0.0537496
0.38775 	1.00034 	-0.0312624 	0 	0.0538135
0.3883 	1.00033 	-0.0314404 	0 	0.0538773
0.38885 	1.00033 	-0.0316185 	0 	0.0539412
0.3894 	1.00033 	-0.0317965 	0 	0.054005
0.38995 	1.00033 	-0.0319746 	0 	0.0540689
0.3905 	1.00033 	-0.0321558 	0 	0.0541337
0.39105 	1.00033 	-0.0323373 	0 	0.0541985
0.3916 	1.00032 	-0.0325188 	0 	0.0542634
0.39215 	1.00032 	-0.0327003 	0 	0.0543283
0.3927 	1.00032 	-0.0328818 	0 	0.0543932
0.39325 	1.00032 	-0.0330633 	0 	0.054458
0.3938 	1.00032 	-0.0332448 	0 	0.0545229
0.39435 	1.00032 	-0.0334263 	0 	0.0545878