0 	0.999976 	0 	0 	0
0.00055 	0.999974 	-0.00204372 	0 	-5.92029e-05
0.0011 	0.999973 	-0.00408745 	0 	-0.000118406
0.00165 	0.999971 	-0.00613117 	0 	-0.000177609
0.0022 	0.999969 	-0.0081749 	0 	-0.000236812
0.00275 	0.999968 	-0.0102186 	0 	-0.000296015
0.0033 	0.999966 	-0.0122623 	0 	-0.000355218
0.00385 	0.999964 	-0.0143061 	0 	-0.00041442
0.0044 	0.999963 	-0.0163498 	0 	-0.000473623
0.00495 	0.999961 	-0.0183935 	0 	-0.000532826
0.0055 	0.999959 	-0.0204372 	0 	-0.000592029
0.00605 	0.999958 	-0.022481 	0 	-0.000651232
0.0066 	0.999956 	-0.0245247 	0 	-0.000710435
0.00715 	0.999954 	-0.0265684 	0 	-0.000769638
0.0077 	0.999953 	-0.0286121 	0 	-0.000828841
0.00825 	0.999951 	-0.0306559 	0 	-0.000888044
0.0088 	0.999949 	-0.0326996 	0 	-0.000947247
0.00935 	0.999948 	-0.0347433 	0 	-0.00100645
0.0099 	0.999946 	-0.036787 	0 	-0.00106565
0.01045 	0.999944 	-0.0372334 	0 	-0.001128
0.011 	0.999941 	-0.0373248 	0 	-0.00119104
0.01155 	0.999938 	-0.0374161 	0 	-0.00125408
0.0121 	0.999936 	-0.0375075 	0 	-0.00131712
0.01265 	0.999933 	-0.0375989 	0 	-0.00138016
0.0132 	0.99993 	-0.0376902 	0 	-0.0014432
0.01375 	0.999928 	-0.0377816 	0 	-0.00150624
0.0143 	0.999925 	-0.037873 	0 	-0.00156928
0.01485 	0.999922 	-0.0379644 	0 	-0.00163232
0.0154 	0.99992 	-0.0380557 	0 	-0.00169536
0.01595 	0.999917 	-0.0381471 	0 	-0.0017584
0.0165 	0.999914 	-0.0382385 	0 	-0.00182144
0.01705 	0.999912 	-0.0383299 	0 	-0.00188448
0.0176 	0.999909 	-0.0384212 	0 	-0.00194752
0.01815 	0.999906 	-0.0385126 	0 	-0.00201056
0.0187 	0.999904 	-0.038604 	0 	-0.0020736
0.01925 	0.999901 	-0.0386953 	0 	-0.00213664
0.0198 	0.999898 	-0.0387867 	0 	-0.00219968
0.02035 	0.999898 	-0.0388056 	0 	-0.00226527
0.0209 	0.999899 	-0.0387829 	0 	-0.00233231
0.02145 	0.999901 	-0.0387603 	0 	-0.00239935
0.022 	0.999902 	-0.0387377 	0 	-0.00246639
0.02255 	0.999903 	-0.0387151 	0 	-0.00253343
0.0231 	0.999904 	-0.0386925 	0 	-0.00260048
0.02365 	0.999905 	-0.0386699 	0 	-0.00266752
0.0242 	0.999906 	-0.0386473 	0 	-0.00273456
0.02475 	0.999908 	-0.0386247 	0 	-0.0028016
0.0253 	0.999909 	-0.038602 	0 	-0.00286864
0.02585 	0.99991 	-0.0385794 	0 	-0.00293568
0.0264 	0.999911 	-0.0385568 	0 	-0.00300273
0.02695 	0.999912 	-0.0385342 	0 	-0.00306977
0.0275 	0.999914 	-0.0385116 	0 	-0.00313681
0.02805 	0.999915 	-0.038489 	0 	-0.00320385
0.0286 	0.999916 	-0.0384664 	0 	-0.00327089
0.02915 	0.999917 	-0.0384438 	0 	-0.00333793
0.0297 	0.999918 	-0.0384211 	0 	-0.00340498
0.03025 	0.999921 	-0.0383933 	0 	-0.00347288
0.0308 	0.999924 	-0.0383593 	0 	-0.00354181
0.03135 	0.999927 	-0.0383252 	0 	-0.00361075
0.0319 	0.99993 	-0.0382912 	0 	-0.00367968
0.03245 	0.999933 	-0.0382571 	0 	-0.00374862
0.033 	0.999936 	-0.038223 	0 	-0.00381755
0.03355 	0.999939 	-0.038189 	0 	-0.00388649
0.0341 	0.999942 	-0.0381549 	0 	-0.00395542
0.03465 	0.999945 	-0.0381209 	0 	-0.00402436
0.0352 	0.999949 	-0.0380868 	0 	-0.0040933
0.03575 	0.999952 	-0.0380528 	0 	-0.00416223
0.0363 	0.999955 	-0.0380187 	0 	-0.00423117
0.03685 	0.999958 	-0.0379846 	0 	-0.0043001
0.0374 	0.999961 	-0.0379506 	0 	-0.00436904
0.03795 	0.999964 	-0.0379165 	0 	-0.00443797
0.0385 	0.999967 	-0.0378825 	0 	-0.00450691
0.03905 	0.99997 	-0.0378484 	0 	-0.00457584
0.0396 	0.999973 	-0.0378144 	0 	-0.00464478
0.04015 	0.999976 	-0.0377889 	0 	-0.00471402
0.0407 	0.999976 	-0.0377862 	0 	-0.0047841
0.04125 	0.999976 	-0.0377835 	0 	-0.00485417
0.0418 	0.999977 	-0.0377808 	0 	-0.00492425
0.04235 	0.999977 	-0.0377781 	0 	-0.00499432
0.0429 	0.999977 	-0.0377754 	0 	-0.0050644
0.04345 	0.999977 	-0.0377727 	0 	-0.00513447
0.044 	0.999978 	-0.03777 	0 	-0.00520454
0.04455 	0.999978 	-0.0377673 	0 	-0.00527462
0.0451 	0.999978 	-0.0377647 	0 	-0.00534469
0.04565 	0.999978 	-0.037762 	0 	-0.00541477
0.0462 	0.999979 	-0.0377593 	0 	-0.00548484
0.04675 	0.999979 	-0.0377566 	0 	-0.00555492
0.0473 	0.999979 	-0.0377539 	0 	-0.00562499
0.04785 	0.999979 	-0.0377512 	0 	-0.00569507
0.0484 	0.99998 	-0.0377485 	0 	-0.00576514
0.04895 	0.99998 	-0.0377458 	0 	-0.00583522
0.0495 	0.99998 	-0.0377431 	0 	-0.00590529
0.05005 	0.99998 	-0.0377429 	0 	-0.00597551
0.0506 	0.999978 	-0.0377671 	0 	-0.00604715
0.05115 	0.999976 	-0.0377914 	0 	-0.00611879
0.0517 	0.999973 	-0.0378156 	0 	-0.00619043
0.05225 	0.999971 	-0.0378398 	0 	-0.00626208
0.0528 	0.999969 	-0.037864 	0 	-0.00633372
0.05335 	0.999967 	-0.0378883 	0 	-0.00640536
0.0539 	0.999964 	-0.0379125 	0 	-0.006477
0.05445 	0.999962 	-0.0379367 	0 	-0.00654864
0.055 	0.99996 	-0.0379609 	0 	-0.00662029
0.05555 	0.999958 	-0.0379852 	0 	-0.00669193
0.0561 	0.999956 	-0.0380094 	0 	-0.00676357
0.05665 	0.999953 	-0.0380336 	0 	-0.00683521
0.0572 	0.999951 	-0.0380579 	0 	-0.00690685
0.05775 	0.999949 	-0.0380821 	0 	-0.0069785
0.0583 	0.999947 	-0.0381063 	0 	-0.00705014
0.05885 	0.999944 	-0.0381305 	0 	-0.00712178
0.0594 	0.999942 	-0.0381548 	0 	-0.00719342
0.05995 	0.99994 	-0.038179 	0 	-0.00726506
0.0605 	0.99994 	-0.0382082 	0 	-0.00733708
0.06105 	0.999941 	-0.038238 	0 	-0.00740913
0.0616 	0.999942 	-0.0382677 	0 	-0.00748118
0.06215 	0.999942 	-0.0382974 	0 	-0.00755323
0.0627 	0.999943 	-0.0383272 	0 	-0.00762528
0.06325 	0.999943 	-0.0383569 	0 	-0.00769733
0.0638 	0.999944 	-0.0383866 	0 	-0.00776938
0.06435 	0.999945 	-0.0384163 	0 	-0.00784143
0.0649 	0.999945 	-0.0384461 	0 	-0.00791348
0.06545 	0.999946 	-0.0384758 	0 	-0.00798553
0.066 	0.999947 	-0.0385055 	0 	-0.00805758
0.06655 	0.999947 	-0.0385353 	0 	-0.00812963
0.0671 	0.999948 	-0.038565 	0 	-0.00820168
0.06765 	0.999948 	-0.0385947 	0 	-0.00827373
0.0682 	0.999949 	-0.0386245 	0 	-0.00834578
0.06875 	0.99995 	-0.0386542 	0 	-0.00841783
0.0693 	0.99995 	-0.0386839 	0 	-0.00848988
0.06985 	0.999951 	-0.0387137 	0 	-0.00856193
0.0704 	0.999953 	-0.0387321 	0 	-0.00863208
0.07095 	0.999955 	-0.0387463 	0 	-0.00870151
0.0715 	0.999957 	-0.0387604 	0 	-0.00877095
0.07205 	0.99996 	-0.0387746 	0 	-0.00884038
0.0726 	0.999962 	-0.0387888 	0 	-0.00890981
0.07315 	0.999965 	-0.038803 	0 	-0.00897925
0.0737 	0.999967 	-0.0388172 	0 	-0.00904868
0.07425 	0.999969 	-0.0388313 	0 	-0.00911811
0.0748 	0.999972 	-0.0388455 	0 	-0.00918754
0.07535 	0.999974 	-0.0388597 	0 	-0.00925698
0.0759 	0.999976 	-0.0388739 	0 	-0.00932641
0.07645 	0.999979 	-0.038888 	0 	-0.00939584
0.077 	0.999981 	-0.0389022 	0 	-0.00946528
0.07755 	0.999983 	-0.0389164 	0 	-0.00953471
0.0781 	0.999986 	-0.0389306 	0 	-0.00960414
0.07865 	0.999988 	-0.0389448 	0 	-0.00967357
0.0792 	0.99999 	-0.0389589 	0 	-0.00974301
0.07975 	0.999993 	-0.0389731 	0 	-0.00981244
0.0803 	0.999994 	-0.0389767 	0 	-0.00987984
0.08085 	0.999994 	-0.0389715 	0 	-0.00994554
0.0814 	0.999994 	-0.0389664 	0 	-0.0100112
0.08195 	0.999994 	-0.0389612 	0 	-0.0100769
0.0825 	0.999994 	-0.038956 	0 	-0.0101426
0.08305 	0.999995 	-0.0389508 	0 	-0.0102083
0.0836 	0.999995 	-0.0389456 	0 	-0.010274
0.08415 	0.999995 	-0.0389404 	0 	-0.0103398
0.0847 	0.999995 	-0.0389353 	0 	-0.0104055
0.08525 	0.999995 	-0.0389301 	0 	-0.0104712
0.0858 	0.999995 	-0.0389249 	0 	-0.0105369
0.08635 	0.999995 	-0.0389197 	0 	-0.0106026
0.0869 	0.999995 	-0.0389145 	0 	-0.0106683
0.08745 	0.999995 	-0.0389093 	0 	-0.010734
0.088 	0.999995 	-0.0389041 	0 	-0.0107997
0.08855 	0.999996 	-0.038899 	0 	-0.0108654
0.0891 	0.999996 	-0.0388938 	0 	-0.0109311
0.08965 	0.999996 	-0.0388886 	0 	-0.0109968
0.0902 	0.999995 	-0.0388797 	0 	-0.011062
0.09075 	0.999994 	-0.0388642 	0 	-0.0111264
0.0913 	0.999993 	-0.0388488 	0 	-0.0111908
0.09185 	0.999992 	-0.0388334 	0 	-0.0112553
0.0924 	0.999991 	-0.0388179 	0 	-0.0113197
0.09295 	0.99999 	-0.0388025 	0 	-0.0113841
0.0935 	0.999989 	-0.038787 	0 	-0.0114485
0.09405 	0.999987 	-0.0387716 	0 	-0.0115129
0.0946 	0.999986 	-0.0387561 	0 	-0.0115774
0.09515 	0.999985 	-0.0387407 	0 	-0.0116418
0.0957 	0.999984 	-0.0387253 	0 	-0.0117062
0.09625 	0.999983 	-0.0387098 	0 	-0.0117706
0.0968 	0.999982 	-0.0386944 	0 	-0.011835
0.09735 	0.999981 	-0.0386789 	0 	-0.0118995
0.0979 	0.999979 	-0.0386635 	0 	-0.0119639
0.09845 	0.999978 	-0.038648 	0 	-0.0120283
0.099 	0.999977 	-0.0386326 	0 	-0.0120927
0.09955 	0.999976 	-0.0386172 	0 	-0.0121571
0.1001 	0.999975 	-0.0386022 	0 	-0.0122219
0.10065 	0.999972 	-0.0385891 	0 	-0.0122881
0.1012 	0.999969 	-0.0385761 	0 	-0.0123544
0.10175 	0.999967 	-0.038563 	0 	-0.0124206
0.1023 	0.999964 	-0.03855 	0 	-0.0124869
0.10285 	0.999961 	-0.0385369 	0 	-0.0125531
0.1034 	0.999959 	-0.0385239 	0 	-0.0126193
0.10395 	0.999956 	-0.0385109 	0 	-0.0126856
0.1045 	0.999954 	-0.0384978 	0 	-0.0127518
0.10505 	0.999951 	-0.0384848 	0 	-0.0128181
0.1056 	0.999948 	-0.0384717 	0 	-0.0128843
0.10615 	0.999946 	-0.0384587 	0 	-0.0129506
0.1067 	0.999943 	-0.0384456 	0 	-0.0130168
0.10725 	0.99994 	-0.0384326 	0 	-0.013083
0.1078 	0.999938 	-0.0384196 	0 	-0.0131493
0.10835 	0.999935 	-0.0384065 	0 	-0.0132155
0.1089 	0.999932 	-0.0383935 	0 	-0.0132818
0.10945 	0.99993 	-0.0383804 	0 	-0.013348
0.11 	0.999927 	-0.0383674 	0 	-0.0134143
0.11055 	0.999926 	-0.0383697 	0 	-0.013483
0.1111 	0.999924 	-0.0383719 	0 	-0.0135517
0.11165 	0.999923 	-0.0383742 	0 	-0.0136205
0.1122 	0.999921 	-0.0383765 	0 	-0.0136892
0.11275 	0.99992 	-0.0383787 	0 	-0.013758
0.1133 	0.999919 	-0.038381 	0 	-0.0138267
0.11385 	0.999917 	-0.0383833 	0 	-0.0138954
0.1144 	0.999916 	-0.0383856 	0 	-0.0139642
0.11495 	0.999914 	-0.0383878 	0 	-0.0140329
0.1155 	0.999913 	-0.0383901 	0 	-0.0141017
0.11605 	0.999911 	-0.0383924 	0 	-0.0141704
0.1166 	0.99991 	-0.0383947 	0 	-0.0142392
0.11715 	0.999908 	-0.0383969 	0 	-0.0143079
0.1177 	0.999907 	-0.0383992 	0 	-0.0143766
0.11825 	0.999906 	-0.0384015 	0 	-0.0144454
0.1188 	0.999904 	-0.0384038 	0 	-0.0145141
0.11935 	0.999903 	-0.038406 	0 	-0.0145829
0.1199 	0.999901 	-0.0384083 	0 	-0.0146516
0.12045 	0.999903 	-0.0384234 	0 	-0.014721
0.121 	0.999906 	-0.0384413 	0 	-0.0147905
0.12155 	0.999909 	-0.0384591 	0 	-0.0148601
0.1221 	0.999912 	-0.038477 	0 	-0.0149296
0.12265 	0.999914 	-0.0384949 	0 	-0.0149992
0.1232 	0.999917 	-0.0385128 	0 	-0.0150687
0.12375 	0.99992 	-0.0385307 	0 	-0.0151382
0.1243 	0.999923 	-0.0385486 	0 	-0.0152078
0.12485 	0.999925 	-0.0385665 	0 	-0.0152773
0.1254 	0.999928 	-0.0385844 	0 	-0.0153469
0.12595 	0.999931 	-0.0386023 	0 	-0.0154164
0.1265 	0.999934 	-0.0386202 	0 	-0.0154859
0.12705 	0.999937 	-0.0386381 	0 	-0.0155555
0.1276 	0.999939 	-0.038656 	0 	-0.015625
0.12815 	0.999942 	-0.0386739 	0 	-0.0156946
0.1287 	0.999945 	-0.0386918 	0 	-0.0157641
0.12925 	0.999948 	-0.0387097 	0 	-0.0158336
0.1298 	0.99995 	-0.0387276 	0 	-0.0159032
0.13035 	0.999953 	-0.0387462 	0 	-0.0159723
0.1309 	0.999956 	-0.0387651 	0 	-0.0160413
0.13145 	0.999958 	-0.038784 	0 	-0.0161103
0.132 	0.999961 	-0.0388029 	0 	-0.0161792
0.13255 	0.999963 	-0.0388218 	0 	-0.0162482
0.1331 	0.999966 	-0.0388408 	0 	-0.0163171
0.13365 	0.999969 	-0.0388597 	0 	-0.0163861
0.1342 	0.999971 	-0.0388786 	0 	-0.016455
0.13475 	0.999974 	-0.0388975 	0 	-0.016524
0.1353 	0.999976 	-0.0389165 	0 	-0.016593
0.13585 	0.999979 	-0.0389354 	0 	-0.0166619
0.1364 	0.999982 	-0.0389543 	0 	-0.0167309
0.13695 	0.999984 	-0.0389732 	0 	-0.0167998
0.1375 	0.999987 	-0.0389921 	0 	-0.0168688
0.13805 	0.999989 	-0.0390111 	0 	-0.0169378
0.1386 	0.999992 	-0.03903 	0 	-0.0170067
0.13915 	0.999995 	-0.0390489 	0 	-0.0170757
0.1397 	0.999997 	-0.0390678 	0 	-0.0171446
0.14025 	0.999998 	-0.0390809 	0 	-0.0172135
0.1408 	0.999998 	-0.0390869 	0 	-0.0172822
0.14135 	0.999997 	-0.0390928 	0 	-0.0173508
0.1419 	0.999996 	-0.0390988 	0 	-0.0174195
0.14245 	0.999995 	-0.0391048 	0 	-0.0174882
0.143 	0.999995 	-0.0391108 	0 	-0.0175569
0.14355 	0.999994 	-0.0391167 	0 	-0.0176256
0.1441 	0.999993 	-0.0391227 	0 	-0.0176943
0.14465 	0.999993 	-0.0391287 	0 	-0.017763
0.1452 	0.999992 	-0.0391347 	0 	-0.0178317
0.14575 	0.999991 	-0.0391406 	0 	-0.0179004
0.1463 	0.999991 	-0.0391466 	0 	-0.0179691
0.14685 	0.99999 	-0.0391526 	0 	-0.0180378
0.1474 	0.999989 	-0.0391586 	0 	-0.0181064
0.14795 	0.999989 	-0.0391645 	0 	-0.0181751
0.1485 	0.999988 	-0.0391705 	0 	-0.0182438
0.14905 	0.999987 	-0.0391765 	0 	-0.0183125
0.1496 	0.999987 	-0.0391825 	0 	-0.0183812
0.15015 	0.999986 	-0.039184 	0 	-0.0184499
0.1507 	0.999984 	-0.0391738 	0 	-0.0185187
0.15125 	0.999982 	-0.0391636 	0 	-0.0185874
0.1518 	0.99998 	-0.0391534 	0 	-0.0186562
0.15235 	0.999979 	-0.0391432 	0 	-0.018725
0.1529 	0.999977 	-0.039133 	0 	-0.0187937
0.15345 	0.999975 	-0.0391228 	0 	-0.0188625
0.154 	0.999974 	-0.0391126 	0 	-0.0189312
0.15455 	0.999972 	-0.0391024 	0 	-0.019
0.1551 	0.99997 	-0.0390922 	0 	-0.0190687
0.15565 	0.999968 	-0.039082 	0 	-0.0191375
0.1562 	0.999967 	-0.0390718 	0 	-0.0192063
0.15675 	0.999965 	-0.0390616 	0 	-0.019275
0.1573 	0.999963 	-0.0390514 	0 	-0.0193438
0.15785 	0.999962 	-0.0390412 	0 	-0.0194125
0.1584 	0.99996 	-0.039031 	0 	-0.0194813
0.15895 	0.999958 	-0.0390208 	0 	-0.0195501
0.1595 	0.999956 	-0.0390106 	0 	-0.0196188
0.16005 	0.999955 	-0.0389997 	0 	-0.0196875
0.1606 	0.999955 	-0.0389818 	0 	-0.0197551
0.16115 	0.999956 	-0.038964 	0 	-0.0198228
0.1617 	0.999956 	-0.0389461 	0 	-0.0198904
0.16225 	0.999956 	-0.0389283 	0 	-0.019958
0.1628 	0.999957 	-0.0389104 	0 	-0.0200257
0.16335 	0.999957 	-0.0388926 	0 	-0.0200933
0.1639 	0.999958 	-0.0388747 	0 	-0.020161
0.16445 	0.999958 	-0.0388569 	0 	-0.0202286
0.165 	0.999958 	-0.038839 	0 	-0.0202963
0.16555 	0.999959 	-0.0388211 	0 	-0.0203639
0.1661 	0.999959 	-0.0388033 	0 	-0.0204316
0.16665 	0.999959 	-0.0387854 	0 	-0.0204992
0.1672 	0.99996 	-0.0387676 	0 	-0.0205668
0.16775 	0.99996 	-0.0387497 	0 	-0.0206345
0.1683 	0.999961 	-0.0387319 	0 	-0.0207021
0.16885 	0.999961 	-0.038714 	0 	-0.0207698
0.1694 	0.999961 	-0.0386962 	0 	-0.0208374
0.16995 	0.999962 	-0.0386783 	0 	-0.0209051
0.1705 	0.999963 	-0.0386677 	0 	-0.0209704
0.17105 	0.999965 	-0.0386578 	0 	-0.0210355
0.1716 	0.999967 	-0.0386479 	0 	-0.0211005
0.17215 	0.999969 	-0.038638 	0 	-0.0211656
0.1727 	0.99997 	-0.0386281 	0 	-0.0212307
0.17325 	0.999972 	-0.0386182 	0 	-0.0212958
0.1738 	0.999974 	-0.0386083 	0 	-0.0213608
0.17435 	0.999976 	-0.0385984 	0 	-0.0214259
0.1749 	0.999977 	-0.0385885 	0 	-0.021491
0.17545 	0.999979 	-0.0385786 	0 	-0.0215561
0.176 	0.999981 	-0.0385687 	0 	-0.0216212
0.17655 	0.999983 	-0.0385588 	0 	-0.0216862
0.1771 	0.999985 	-0.0385489 	0 	-0.0217513
0.17765 	0.999986 	-0.038539 	0 	-0.0218164
0.1782 	0.999988 	-0.0385291 	0 	-0.0218815
0.17875 	0.99999 	-0.0385192 	0 	-0.0219466
0.1793 	0.999992 	-0.0385093 	0 	-0.0220116
0.17985 	0.999993 	-0.0384994 	0 	-0.0220767
0.1804 	0.999994 	-0.0385026 	0 	-0.0221403
0.18095 	0.999993 	-0.0385106 	0 	-0.0222033
0.1815 	0.999993 	-0.0385187 	0 	-0.0222663
0.18205 	0.999993 	-0.0385268 	0 	-0.0223292
0.1826 	0.999993 	-0.0385349 	0 	-0.0223922
0.18315 	0.999993 	-0.0385429 	0 	-0.0224552
0.1837 	0.999992 	-0.038551 	0 	-0.0225182
0.18425 	0.999992 	-0.0385591 	0 	-0.0225812
0.1848 	0.999992 	-0.0385672 	0 	-0.0226442
0.18535 	0.999992 	-0.0385753 	0 	-0.0227072
0.1859 	0.999992 	-0.0385833 	0 	-0.0227702
0.18645 	0.999991 	-0.0385914 	0 	-0.0228332
0.187 	0.999991 	-0.0385995 	0 	-0.0228961
0.18755 	0.999991 	-0.0386076 	0 	-0.0229591
0.1881 	0.999991 	-0.0386156 	0 	-0.0230221
0.18865 	0.99999 	-0.0386237 	0 	-0.0230851
0.1892 	0.99999 	-0.0386318 	0 	-0.0231481
0.18975 	0.99999 	-0.0386399 	0 	-0.0232111
0.1903 	0.999988 	-0.0386557 	0 	-0.0232743
0.19085 	0.999985 	-0.038678 	0 	-0.0233378
0.1914 	0.999982 	-0.0387004 	0 	-0.0234012
0.19195 	0.999978 	-0.0387227 	0 	-0.0234646
0.1925 	0.999975 	-0.038745 	0 	-0.0235281
0.19305 	0.999972 	-0.0387674 	0 	-0.0235915
0.1936 	0.999969 	-0.0387897 	0 	-0.0236549
0.19415 	0.999965 	-0.038812 	0 	-0.0237183
0.1947 	0.999962 	-0.0388343 	0 	-0.0237818
0.19525 	0.999959 	-0.0388567 	0 	-0.0238452
0.1958 	0.999956 	-0.038879 	0 	-0.0239086
0.19635 	0.999952 	-0.0389013 	0 	-0.0239721
0.1969 	0.999949 	-0.0389236 	0 	-0.0240355
0.19745 	0.999946 	-0.038946 	0 	-0.0240989
0.198 	0.999943 	-0.0389683 	0 	-0.0241624
0.19855 	0.999939 	-0.0389906 	0 	-0.0242258
0.1991 	0.999936 	-0.039013 	0 	-0.0242892
0.19965 	0.999933 	-0.0390353 	0 	-0.0243527
0.2002 	0.99993 	-0.0390581 	0 	-0.0244173
0.20075 	0.999927 	-0.0390818 	0 	-0.024484
0.2013 	0.999924 	-0.0391055 	0 	-0.0245507
0.20185 	0.999921 	-0.0391292 	0 	-0.0246175
0.2024 	0.999918 	-0.0391529 	0 	-0.0246842
0.20295 	0.999915 	-0.0391766 	0 	-0.0247509
0.2035 	0.999912 	-0.0392003 	0 	-0.0248176
0.20405 	0.999909 	-0.039224 	0 	-0.0248843
0.2046 	0.999906 	-0.0392477 	0 	-0.024951
0.20515 	0.999903 	-0.0392714 	0 	-0.0250178
0.2057 	0.9999 	-0.0392951 	0 	-0.0250845
0.20625 	0.999897 	-0.0393188 	0 	-0.0251512
0.2068 	0.999894 	-0.0393425 	0 	-0.0252179
0.20735 	0.999891 	-0.0393662 	0 	-0.0252846
0.2079 	0.999888 	-0.0393899 	0 	-0.0253514
0.20845 	0.999885 	-0.0394135 	0 	-0.0254181
0.209 	0.999882 	-0.0394372 	0 	-0.0254848
0.20955 	0.999879 	-0.0394609 	0 	-0.0255515
0.2101 	0.999877 	-0.039483 	0 	-0.025619
0.21065 	0.999878 	-0.0394979 	0 	-0.0256902
0.2112 	0.99988 	-0.0395127 	0 	-0.0257614
0.21175 	0.999882 	-0.0395276 	0 	-0.0258326
0.2123 	0.999884 	-0.0395424 	0 	-0.0259038
0.21285 	0.999886 	-0.0395573 	0 	-0.025975
0.2134 	0.999888 	-0.0395721 	0 	-0.0260462
0.21395 	0.99989 	-0.039587 	0 	-0.0261173
0.2145 	0.999892 	-0.0396018 	0 	-0.0261885
0.21505 	0.999894 	-0.0396167 	0 	-0.0262597
0.2156 	0.999896 	-0.0396315 	0 	-0.0263309
0.21615 	0.999897 	-0.0396464 	0 	-0.0264021
0.2167 	0.999899 	-0.0396612 	0 	-0.0264733
0.21725 	0.999901 	-0.0396761 	0 	-0.0265445
0.2178 	0.999903 	-0.0396909 	0 	-0.0266156
0.21835 	0.999905 	-0.0397058 	0 	-0.0266868
0.2189 	0.999907 	-0.0397206 	0 	-0.026758
0.21945 	0.999909 	-0.0397355 	0 	-0.0268292
0.22 	0.999911 	-0.0397503 	0 	-0.0269004
0.22055 	0.999914 	-0.0397571 	0 	-0.0269748
0.2211 	0.999918 	-0.0397638 	0 	-0.0270493
0.22165 	0.999921 	-0.0397706 	0 	-0.0271237
0.2222 	0.999925 	-0.0397774 	0 	-0.0271982
0.22275 	0.999928 	-0.0397841 	0 	-0.0272726
0.2233 	0.999932 	-0.0397909 	0 	-0.027347
0.22385 	0.999935 	-0.0397976 	0 	-0.0274215
0.2244 	0.999939 	-0.0398044 	0 	-0.0274959
0.22495 	0.999942 	-0.0398112 	0 	-0.0275704
0.2255 	0.999946 	-0.0398179 	0 	-0.0276448
0.22605 	0.99995 	-0.0398247 	0 	-0.0277193
0.2266 	0.999953 	-0.0398314 	0 	-0.0277937
0.22715 	0.999957 	-0.0398382 	0 	-0.0278682
0.2277 	0.99996 	-0.039845 	0 	-0.0279426
0.22825 	0.999964 	-0.0398517 	0 	-0.0280171
0.2288 	0.999967 	-0.0398585 	0 	-0.0280915
0.22935 	0.999971 	-0.0398653 	0 	-0.0281659
0.2299 	0.999974 	-0.039872 	0 	-0.0282404
0.23045 	0.999976 	-0.0398782 	0 	-0.0283156
0.231 	0.999977 	-0.0398843 	0 	-0.0283909
0.23155 	0.999979 	-0.0398904 	0 	-0.0284663
0.2321 	0.99998 	-0.0398965 	0 	-0.0285416
0.23265 	0.999981 	-0.0399026 	0 	-0.028617
0.2332 	0.999983 	-0.0399087 	0 	-0.0286923
0.23375 	0.999984 	-0.0399147 	0 	-0.0287677
0.2343 	0.999985 	-0.0399208 	0 	-0.028843
0.23485 	0.999987 	-0.0399269 	0 	-0.0289184
0.2354 	0.999988 	-0.039933 	0 	-0.0289937
0.23595 	0.999989 	-0.0399391 	0 	-0.0290691
0.2365 	0.999991 	-0.0399452 	0 	-0.0291444
0.23705 	0.999992 	-0.0399513 	0 	-0.0292198
0.2376 	0.999993 	-0.0399574 	0 	-0.0292951
0.23815 	0.999994 	-0.0399634 	0 	-0.0293705
0.2387 	0.999996 	-0.0399695 	0 	-0.0294458
0.23925 	0.999997 	-0.0399756 	0 	-0.0295212
0.2398 	0.999998 	-0.0399817 	0 	-0.0295965
0.24035 	0.999999 	-0.0399907 	0 	-0.0296716
0.2409 	0.999998 	-0.0400013 	0 	-0.0297465
0.24145 	0.999997 	-0.0400119 	0 	-0.0298214
0.242 	0.999997 	-0.0400225 	0 	-0.0298963
0.24255 	0.999996 	-0.0400331 	0 	-0.0299712
0.2431 	0.999995 	-0.0400437 	0 	-0.0300461
0.24365 	0.999994 	-0.0400543 	0 	-0.0301211
0.2442 	0.999994 	-0.0400649 	0 	-0.030196
0.24475 	0.999993 	-0.0400755 	0 	-0.0302709
0.2453 	0.999992 	-0.0400861 	0 	-0.0303458
0.24585 	0.999992 	-0.0400967 	0 	-0.0304207
0.2464 	0.999991 	-0.0401074 	0 	-0.0304956
0.24695 	0.99999 	-0.040118 	0 	-0.0305705
0.2475 	0.99999 	-0.0401286 	0 	-0.0306454
0.24805 	0.999989 	-0.0401392 	0 	-0.0307203
0.2486 	0.999988 	-0.0401498 	0 	-0.0307952
0.24915 	0.999988 	-0.0401604 	0 	-0.0308701
0.2497 	0.999987 	-0.040171 	0 	-0.030945
0.25025 	0.999985 	-0.0401829 	0 	-0.03102
0.2508 	0.999982 	-0.0401964 	0 	-0.0310951
0.25135 	0.999979 	-0.0402099 	0 	-0.0311702
0.2519 	0.999976 	-0.0402235 	0 	-0.0312453
0.25245 	0.999973 	-0.040237 	0 	-0.0313204
0.253 	0.999969 	-0.0402505 	0 	-0.0313954
0.25355 	0.999966 	-0.040264 	0 	-0.0314705
0.2541 	0.999963 	-0.0402775 	0 	-0.0315456
0.25465 	0.99996 	-0.040291 	0 	-0.0316207
0.2552 	0.999957 	-0.0403045 	0 	-0.0316958
0.25575 	0.999953 	-0.040318 	0 	-0.0317709
0.2563 	0.99995 	-0.0403315 	0 	-0.031846
0.25685 	0.999947 	-0.040345 	0 	-0.0319211
0.2574 	0.999944 	-0.0403585 	0 	-0.0319962
0.25795 	0.999941 	-0.040372 	0 	-0.0320712
0.2585 	0.999938 	-0.0403856 	0 	-0.0321463
0.25905 	0.999934 	-0.0403991 	0 	-0.0322214
0.2596 	0.999931 	-0.0404126 	0 	-0.0322965
0.26015 	0.999928 	-0.0404251 	0 	-0.032372
0.2607 	0.999925 	-0.0404349 	0 	-0.0324487
0.26125 	0.999923 	-0.0404447 	0 	-0.0325253
0.2618 	0.99992 	-0.0404545 	0 	-0.032602
0.26235 	0.999917 	-0.0404644 	0 	-0.0326786
0.2629 	0.999915 	-0.0404742 	0 	-0.0327552
0.26345 	0.999912 	-0.040484 	0 	-0.0328319
0.264 	0.999909 	-0.0404938 	0 	-0.0329085
0.26455 	0.999906 	-0.0405037 	0 	-0.0329852
0.2651 	0.999904 	-0.0405135 	0 	-0.0330618
0.26565 	0.999901 	-0.0405233 	0 	-0.0331385
0.2662 	0.999898 	-0.0405331 	0 	-0.0332151
0.26675 	0.999895 	-0.040543 	0 	-0.0332917
0.2673 	0.999893 	-0.0405528 	0 	-0.0333684
0.26785 	0.99989 	-0.0405626 	0 	-0.033445
0.2684 	0.999887 	-0.0405724 	0 	-0.0335217
0.26895 	0.999885 	-0.0405823 	0 	-0.0335983
0.2695 	0.999882 	-0.0405921 	0 	-0.033675
0.27005 	0.99988 	-0.0406013 	0 	-0.0337518
0.2706 	0.999882 	-0.0406044 	0 	-0.0338302
0.27115 	0.999885 	-0.0406074 	0 	-0.0339086
0.2717 	0.999887 	-0.0406105 	0 	-0.033987
0.27225 	0.999889 	-0.0406136 	0 	-0.0340654
0.2728 	0.999892 	-0.0406166 	0 	-0.0341438
0.27335 	0.999894 	-0.0406197 	0 	-0.0342222
0.2739 	0.999897 	-0.0406228 	0 	-0.0343006
0.27445 	0.999899 	-0.0406258 	0 	-0.034379
0.275 	0.999902 	-0.0406289 	0 	-0.0344574
0.27555 	0.999904 	-0.040632 	0 	-0.0345358
0.2761 	0.999907 	-0.040635 	0 	-0.0346142
0.27665 	0.999909 	-0.0406381 	0 	-0.0346926
0.2772 	0.999912 	-0.0406412 	0 	-0.034771
0.27775 	0.999914 	-0.0406442 	0 	-0.0348494
0.2783 	0.999917 	-0.0406473 	0 	-0.0349278
0.27885 	0.999919 	-0.0406504 	0 	-0.0350062
0.2794 	0.999922 	-0.0406534 	0 	-0.0350846
0.27995 	0.999924 	-0.0406565 	0 	-0.035163
0.2805 	0.999927 	-0.0406582 	0 	-0.0352418
0.28105 	0.999931 	-0.0406598 	0 	-0.0353206
0.2816 	0.999934 	-0.0406614 	0 	-0.0353993
0.28215 	0.999938 	-0.040663 	0 	-0.0354781
0.2827 	0.999941 	-0.0406646 	0 	-0.0355569
0.28325 	0.999944 	-0.0406662 	0 	-0.0356357
0.2838 	0.999948 	-0.0406678 	0 	-0.0357145
0.28435 	0.999951 	-0.0406694 	0 	-0.0357933
0.2849 	0.999955 	-0.0406709 	0 	-0.0358721
0.28545 	0.999958 	-0.0406725 	0 	-0.0359508
0.286 	0.999961 	-0.0406741 	0 	-0.0360296
0.28655 	0.999965 	-0.0406757 	0 	-0.0361084
0.2871 	0.999968 	-0.0406773 	0 	-0.0361872
0.28765 	0.999972 	-0.0406789 	0 	-0.036266
0.2882 	0.999975 	-0.0406805 	0 	-0.0363448
0.28875 	0.999978 	-0.0406821 	0 	-0.0364236
0.2893 	0.999982 	-0.0406837 	0 	-0.0365023
0.28985 	0.999985 	-0.0406853 	0 	-0.0365811
0.2904 	0.999987 	-0.0406908 	0 	-0.0366588
0.29095 	0.999987 	-0.0406979 	0 	-0.0367361
0.2915 	0.999988 	-0.040705 	0 	-0.0368133
0.29205 	0.999989 	-0.0407121 	0 	-0.0368906
0.2926 	0.999989 	-0.0407191 	0 	-0.0369679
0.29315 	0.99999 	-0.0407262 	0 	-0.0370451
0.2937 	0.999991 	-0.0407333 	0 	-0.0371224
0.29425 	0.999992 	-0.0407404 	0 	-0.0371997
0.2948 	0.999992 	-0.0407474 	0 	-0.037277
0.29535 	0.999993 	-0.0407545 	0 	-0.0373542
0.2959 	0.999994 	-0.0407616 	0 	-0.0374315
0.29645 	0.999995 	-0.0407687 	0 	-0.0375088
0.297 	0.999995 	-0.0407757 	0 	-0.037586
0.29755 	0.999996 	-0.0407828 	0 	-0.0376633
0.2981 	0.999997 	-0.0407899 	0 	-0.0377406
0.29865 	0.999997 	-0.040797 	0 	-0.0378178
0.2992 	0.999998 	-0.040804 	0 	-0.0378951
0.29975 	0.999999 	-0.0408111 	0 	-0.0379724
0.3003 	0.999999 	-0.0408221 	0 	-0.0380482
0.30085 	0.999999 	-0.0408363 	0 	-0.0381228
0.3014 	0.999999 	-0.0408505 	0 	-0.0381975
0.30195 	0.999999 	-0.0408647 	0 	-0.0382721
0.3025 	0.999999 	-0.0408789 	0 	-0.0383468
0.30305 	0.999999 	-0.0408931 	0 	-0.0384214
0.3036 	0.999999 	-0.0409073 	0 	-0.038496
0.30415 	0.999999 	-0.0409215 	0 	-0.0385707
0.3047 	0.999999 	-0.0409357 	0 	-0.0386453
0.30525 	0.999999 	-0.0409499 	0 	-0.0387199
0.3058 	0.999999 	-0.0409641 	0 	-0.0387946
0.30635 	0.999999 	-0.0409783 	0 	-0.0388692
0.3069 	0.999999 	-0.0409925 	0 	-0.0389438
0.30745 	0.999999 	-0.0410067 	0 	-0.0390185
0.308 	0.999998 	-0.0410209 	0 	-0.0390931
0.30855 	0.999998 	-0.0410351 	0 	-0.0391678
0.3091 	0.999998 	-0.0410493 	0 	-0.0392424
0.30965 	0.999998 	-0.0410635 	0 	-0.039317
0.3102 	0.999998 	-0.0410793 	0 	-0.0393909
0.31075 	0.999998 	-0.0410979 	0 	-0.0394636
0.3113 	0.999998 	-0.0411165 	0 	-0.0395362
0.31185 	0.999998 	-0.0411351 	0 	-0.0396089
0.3124 	0.999998 	-0.0411537 	0 	-0.0396815
0.31295 	0.999998 	-0.0411723 	0 	-0.0397541
0.3135 	0.999998 	-0.0411909 	0 	-0.0398268
0.31405 	0.999998 	-0.0412095 	0 	-0.0398994
0.3146 	0.999997 	-0.0412281 	0 	-0.0399721
0.31515 	0.999997 	-0.0412467 	0 	-0.0400447
0.3157 	0.999997 	-0.0412653 	0 	-0.0401173
0.31625 	0.999997 	-0.0412839 	0 	-0.04019
0.3168 	0.999997 	-0.0413025 	0 	-0.0402626
0.31735 	0.999997 	-0.0413211 	0 	-0.0403353
0.3179 	0.999997 	-0.0413397 	0 	-0.0404079
0.31845 	0.999997 	-0.0413583 	0 	-0.0404806
0.319 	0.999997 	-0.0413769 	0 	-0.0405532
0.31955 	0.999996 	-0.0413955 	0 	-0.0406258
0.3201 	0.999996 	-0.0414142 	0 	-0.0406986
0.32065 	0.999993 	-0.0414335 	0 	-0.0407717
0.3212 	0.99999 	-0.0414528 	0 	-0.0408448
0.32175 	0.999987 	-0.0414721 	0 	-0.0409179
0.3223 	0.999983 	-0.0414913 	0 	-0.040991
0.32285 	0.99998 	-0.0415106 	0 	-0.0410641
0.3234 	0.999977 	-0.0415299 	0 	-0.0411372
0.32395 	0.999974 	-0.0415491 	0 	-0.0412103
0.3245 	0.999971 	-0.0415684 	0 	-0.0412834
0.32505 	0.999968 	-0.0415877 	0 	-0.0413565
0.3256 	0.999965 	-0.041607 	0 	-0.0414296
0.32615 	0.999962 	-0.0416262 	0 	-0.0415028
0.3267 	0.999959 	-0.0416455 	0 	-0.0415759
0.32725 	0.999956 	-0.0416648 	0 	-0.041649
0.3278 	0.999953 	-0.041684 	0 	-0.0417221
0.32835 	0.99995 	-0.0417033 	0 	-0.0417952
0.3289 	0.999946 	-0.0417226 	0 	-0.0418683
0.32945 	0.999943 	-0.0417418 	0 	-0.0419414
0.33 	0.99994 	-0.0417611 	0 	-0.0420145
0.33055 	0.999936 	-0.0417778 	0 	-0.0420909
0.3311 	0.999932 	-0.0417945 	0 	-0.0421673
0.33165 	0.999928 	-0.0418112 	0 	-0.0422437
0.3322 	0.999924 	-0.0418279 	0 	-0.0423201
0.33275 	0.99992 	-0.0418446 	0 	-0.0423965
0.3333 	0.999916 	-0.0418613 	0 	-0.0424729
0.33385 	0.999912 	-0.0418779 	0 	-0.0425493
0.3344 	0.999907 	-0.0418946 	0 	-0.0426257
0.33495 	0.999903 	-0.0419113 	0 	-0.0427021
0.3355 	0.999899 	-0.041928 	0 	-0.0427785
0.33605 	0.999895 	-0.0419447 	0 	-0.0428549
0.3366 	0.999891 	-0.0419614 	0 	-0.0429313
0.33715 	0.999887 	-0.0419781 	0 	-0.0430077
0.3377 	0.999883 	-0.0419948 	0 	-0.0430841
0.33825 	0.999879 	-0.0420115 	0 	-0.0431605
0.3388 	0.999875 	-0.0420282 	0 	-0.0432369
0.33935 	0.999871 	-0.0420449 	0 	-0.0433133
0.3399 	0.999866 	-0.0420615 	0 	-0.0433897
0.34045 	0.999865 	-0.0420746 	0 	-0.0434697
0.341 	0.999865 	-0.0420868 	0 	-0.0435504
0.34155 	0.999864 	-0.042099 	0 	-0.0436312
0.3421 	0.999864 	-0.0421112 	0 	-0.043712
0.34265 	0.999863 	-0.0421234 	0 	-0.0437927
0.3432 	0.999863 	-0.0421357 	0 	-0.0438735
0.34375 	0.999862 	-0.0421479 	0 	-0.0439543
0.3443 	0.999861 	-0.0421601 	0 	-0.0440351
0.34485 	0.999861 	-0.0421723 	0 	-0.0441158
0.3454 	0.99986 	-0.0421845 	0 	-0.0441966
0.34595 	0.99986 	-0.0421967 	0 	-0.0442774
0.3465 	0.999859 	-0.042209 	0 	-0.0443581
0.34705 	0.999859 	-0.0422212 	0 	-0.0444389
0.3476 	0.999858 	-0.0422334 	0 	-0.0445197
0.34815 	0.999858 	-0.0422456 	0 	-0.0446004
0.3487 	0.999857 	-0.0422578 	0 	-0.0446812
0.34925 	0.999857 	-0.04227 	0 	-0.044762
0.3498 	0.999856 	-0.0422822 	0 	-0.0448427
0.35035 	0.999859 	-0.0422921 	0 	-0.0449255
0.3509 	0.999863 	-0.0423006 	0 	-0.0450095
0.35145 	0.999867 	-0.042309 	0 	-0.0450935
0.352 	0.999871 	-0.0423175 	0 	-0.0451775
0.35255 	0.999876 	-0.042326 	0 	-0.0452614
0.3531 	0.99988 	-0.0423345 	0 	-0.0453454
0.35365 	0.999884 	-0.0423429 	0 	-0.0454294
0.3542 	0.999888 	-0.0423514 	0 	-0.0455133
0.35475 	0.999893 	-0.0423599 	0 	-0.0455973
0.3553 	0.999897 	-0.0423684 	0 	-0.0456813
0.35585 	0.999901 	-0.0423768 	0 	-0.0457653
0.3564 	0.999905 	-0.0423853 	0 	-0.0458492
0.35695 	0.999909 	-0.0423938 	0 	-0.0459332
0.3575 	0.999914 	-0.0424023 	0 	-0.0460172
0.35805 	0.999918 	-0.0424107 	0 	-0.0461012
0.3586 	0.999922 	-0.0424192 	0 	-0.0461851
0.35915 	0.999926 	-0.0424277 	0 	-0.0462691
0.3597 	0.999931 	-0.0424362 	0 	-0.0463531
0.36025 	0.999935 	-0.0424444 	0 	-0.0464376
0.3608 	0.999938 	-0.0424524 	0 	-0.0465228
0.36135 	0.999942 	-0.0424604 	0 	-0.046608
0.3619 	0.999946 	-0.0424684 	0 	-0.0466932
0.36245 	0.999949 	-0.0424764 	0 	-0.0467784
0.363 	0.999953 	-0.0424843 	0 	-0.0468635
0.36355 	0.999957 	-0.0424923 	0 	-0.0469487
0.3641 	0.99996 	-0.0425003 	0 	-0.0470339
0.36465 	0.999964 	-0.0425083 	0 	-0.0471191
0.3652 	0.999967 	-0.0425163 	0 	-0.0472043
0.36575 	0.999971 	-0.0425243 	0 	-0.0472895
0.3663 	0.999975 	-0.0425322 	0 	-0.0473747
0.36685 	0.999978 	-0.0425402 	0 	-0.0474599
0.3674 	0.999982 	-0.0425482 	0 	-0.0475451
0.36795 	0.999986 	-0.0425562 	0 	-0.0476303
0.3685 	0.999989 	-0.0425642 	0 	-0.0477154
0.36905 	0.999993 	-0.0425722 	0 	-0.0478006
0.3696 	0.999997 	-0.0425801 	0 	-0.0478858
0.37015 	0.999999 	-0.042589 	0 	-0.047971
0.3707 	0.999999 	-0.0426004 	0 	-0.0480562
0.37125 	0.999999 	-0.0426117 	0 	-0.0481414