0 	1.00016 	0 	0 	0
0.00055 	1.00016 	0.00155418 	0 	5.73617e-05
0.0011 	1.00016 	0.00310835 	0 	0.000114723
0.00165 	1.00016 	0.00466253 	0 	0.000172085
0.0022 	1.00016 	0.00621671 	0 	0.000229447
0.00275 	1.00016 	0.00777089 	0 	0.000286808
0.0033 	1.00016 	0.00932506 	0 	0.00034417
0.00385 	1.00016 	0.0108792 	0 	0.000401532
0.0044 	1.00016 	0.0124334 	0 	0.000458894
0.00495 	1.00016 	0.0139876 	0 	0.000516255
0.0055 	1.00017 	0.0155418 	0 	0.000573617
0.00605 	1.00017 	0.0170959 	0 	0.000630979
0.0066 	1.00017 	0.0186501 	0 	0.00068834
0.00715 	1.00017 	0.0202043 	0 	0.000745702
0.0077 	1.00017 	0.0217585 	0 	0.000803064
0.00825 	1.00017 	0.0233127 	0 	0.000860425
0.0088 	1.00017 	0.0248668 	0 	0.000917787
0.00935 	1.00017 	0.026421 	0 	0.000975149
0.0099 	1.00017 	0.0279752 	0 	0.00103251
0.01045 	1.00017 	0.0283062 	0 	0.00108615
0.011 	1.00017 	0.0283654 	0 	0.00113896
0.01155 	1.00017 	0.0284245 	0 	0.00119176
0.0121 	1.00017 	0.0284837 	0 	0.00124457
0.01265 	1.00017 	0.0285429 	0 	0.00129738
0.0132 	1.00017 	0.0286021 	0 	0.00135019
0.01375 	1.00018 	0.0286612 	0 	0.001403
0.0143 	1.00018 	0.0287204 	0 	0.00145581
0.01485 	1.00018 	0.0287796 	0 	0.00150862
0.0154 	1.00018 	0.0288388 	0 	0.00156142
0.01595 	1.00018 	0.028898 	0 	0.00161423
0.0165 	1.00018 	0.0289571 	0 	0.00166704
0.01705 	1.00018 	0.0290163 	0 	0.00171985
0.0176 	1.00018 	0.0290755 	0 	0.00177266
0.01815 	1.00018 	0.0291347 	0 	0.00182547
0.0187 	1.00018 	0.0291938 	0 	0.00187828
0.01925 	1.00018 	0.029253 	0 	0.00193109
0.0198 	1.00018 	0.0293122 	0 	0.00198389
0.02035 	1.00018 	0.0293021 	0 	0.00203714
0.0209 	1.00018 	0.0292525 	0 	0.00209062
0.02145 	1.00018 	0.0292029 	0 	0.00214411
0.022 	1.00018 	0.0291532 	0 	0.0021976
0.02255 	1.00018 	0.0291036 	0 	0.00225109
0.0231 	1.00018 	0.0290539 	0 	0.00230458
0.02365 	1.00018 	0.0290043 	0 	0.00235807
0.0242 	1.00018 	0.0289547 	0 	0.00241156
0.02475 	1.00018 	0.028905 	0 	0.00246505
0.0253 	1.00018 	0.0288554 	0 	0.00251853
0.02585 	1.00018 	0.0288058 	0 	0.00257202
0.0264 	1.00018 	0.0287561 	0 	0.00262551
0.02695 	1.00018 	0.0287065 	0 	0.002679
0.0275 	1.00018 	0.0286568 	0 	0.00273249
0.02805 	1.00018 	0.0286072 	0 	0.00278598
0.0286 	1.00018 	0.0285576 	0 	0.00283947
0.02915 	1.00018 	0.0285079 	0 	0.00289295
0.0297 	1.00018 	0.0284583 	0 	0.00294644
0.03025 	1.00018 	0.0284185 	0 	0.00300043
0.0308 	1.00018 	0.0283906 	0 	0.00305502
0.03135 	1.00018 	0.0283627 	0 	0.00310961
0.0319 	1.00018 	0.0283348 	0 	0.00316421
0.03245 	1.00018 	0.0283069 	0 	0.0032188
0.033 	1.00018 	0.0282789 	0 	0.00327339
0.03355 	1.00018 	0.028251 	0 	0.00332798
0.0341 	1.00018 	0.0282231 	0 	0.00338257
0.03465 	1.00018 	0.0281952 	0 	0.00343716
0.0352 	1.00018 	0.0281673 	0 	0.00349175
0.03575 	1.00018 	0.0281394 	0 	0.00354634
0.0363 	1.00018 	0.0281115 	0 	0.00360093
0.03685 	1.00018 	0.0280835 	0 	0.00365552
0.0374 	1.00018 	0.0280556 	0 	0.00371011
0.03795 	1.00018 	0.0280277 	0 	0.0037647
0.0385 	1.00018 	0.0279998 	0 	0.00381929
0.03905 	1.00018 	0.0279719 	0 	0.00387388
0.0396 	1.00018 	0.027944 	0 	0.00392847
0.04015 	1.00018 	0.0279179 	0 	0.00398318
0.0407 	1.00018 	0.0278969 	0 	0.00403818
0.04125 	1.00018 	0.0278759 	0 	0.00409318
0.0418 	1.00018 	0.0278548 	0 	0.00414818
0.04235 	1.00018 	0.0278338 	0 	0.00420318
0.0429 	1.00018 	0.0278128 	0 	0.00425818
0.04345 	1.00018 	0.0277917 	0 	0.00431319
0.044 	1.00018 	0.0277707 	0 	0.00436819
0.04455 	1.00018 	0.0277497 	0 	0.00442319
0.0451 	1.00018 	0.0277286 	0 	0.00447819
0.04565 	1.00018 	0.0277076 	0 	0.00453319
0.0462 	1.00018 	0.0276866 	0 	0.00458819
0.04675 	1.00018 	0.0276655 	0 	0.00464319
0.0473 	1.00018 	0.0276445 	0 	0.0046982
0.04785 	1.00018 	0.0276235 	0 	0.0047532
0.0484 	1.00018 	0.0276025 	0 	0.0048082
0.04895 	1.00018 	0.0275814 	0 	0.0048632
0.0495 	1.00018 	0.0275604 	0 	0.0049182
0.05005 	1.00018 	0.0275393 	0 	0.00497323
0.0506 	1.00018 	0.0275171 	0 	0.00502856
0.05115 	1.00018 	0.027495 	0 	0.00508388
0.0517 	1.00018 	0.0274728 	0 	0.00513921
0.05225 	1.00018 	0.0274507 	0 	0.00519454
0.0528 	1.00018 	0.0274286 	0 	0.00524986
0.05335 	1.00018 	0.0274064 	0 	0.00530519
0.0539 	1.00018 	0.0273843 	0 	0.00536051
0.05445 	1.00018 	0.0273621 	0 	0.00541584
0.055 	1.00018 	0.02734 	0 	0.00547116
0.05555 	1.00018 	0.0273179 	0 	0.00552649
0.0561 	1.00018 	0.0272957 	0 	0.00558182
0.05665 	1.00018 	0.0272736 	0 	0.00563714
0.0572 	1.00018 	0.0272514 	0 	0.00569247
0.05775 	1.00018 	0.0272293 	0 	0.00574779
0.0583 	1.00018 	0.0272072 	0 	0.00580312
0.05885 	1.00018 	0.027185 	0 	0.00585844
0.0594 	1.00018 	0.0271629 	0 	0.00591377
0.05995 	1.00018 	0.0271408 	0 	0.0059691
0.0605 	1.00018 	0.0271178 	0 	0.0060248
0.06105 	1.00018 	0.0270947 	0 	0.00608055
0.0616 	1.00018 	0.0270717 	0 	0.00613629
0.06215 	1.00018 	0.0270487 	0 	0.00619204
0.0627 	1.00018 	0.0270256 	0 	0.00624778
0.06325 	1.00018 	0.0270026 	0 	0.00630353
0.0638 	1.00018 	0.0269795 	0 	0.00635927
0.06435 	1.00018 	0.0269565 	0 	0.00641502
0.0649 	1.00018 	0.0269334 	0 	0.00647076
0.06545 	1.00018 	0.0269104 	0 	0.00652651
0.066 	1.00018 	0.0268874 	0 	0.00658225
0.06655 	1.00018 	0.0268643 	0 	0.006638
0.0671 	1.00018 	0.0268413 	0 	0.00669374
0.06765 	1.00018 	0.0268182 	0 	0.00674949
0.0682 	1.00018 	0.0267952 	0 	0.00680523
0.06875 	1.00018 	0.0267721 	0 	0.00686098
0.0693 	1.00018 	0.0267491 	0 	0.00691672
0.06985 	1.00018 	0.026726 	0 	0.00697247
0.0704 	1.00018 	0.0267029 	0 	0.00702857
0.07095 	1.00018 	0.0266797 	0 	0.0070848
0.0715 	1.00018 	0.0266566 	0 	0.00714104
0.07205 	1.00018 	0.0266334 	0 	0.00719727
0.0726 	1.00018 	0.0266102 	0 	0.00725351
0.07315 	1.00018 	0.0265871 	0 	0.00730975
0.0737 	1.00018 	0.0265639 	0 	0.00736598
0.07425 	1.00018 	0.0265407 	0 	0.00742222
0.0748 	1.00018 	0.0265176 	0 	0.00747845
0.07535 	1.00018 	0.0264944 	0 	0.00753469
0.0759 	1.00018 	0.0264712 	0 	0.00759093
0.07645 	1.00018 	0.0264481 	0 	0.00764716
0.077 	1.00018 	0.0264249 	0 	0.0077034
0.07755 	1.00018 	0.0264017 	0 	0.00775963
0.0781 	1.00018 	0.0263786 	0 	0.00781587
0.07865 	1.00018 	0.0263554 	0 	0.00787211
0.0792 	1.00018 	0.0263322 	0 	0.00792834
0.07975 	1.00018 	0.0263091 	0 	0.00798458
0.0803 	1.00018 	0.0262859 	0 	0.00804109
0.08085 	1.00018 	0.0262627 	0 	0.00809784
0.0814 	1.00018 	0.0262395 	0 	0.00815458
0.08195 	1.00018 	0.0262163 	0 	0.00821133
0.0825 	1.00018 	0.0261932 	0 	0.00826808
0.08305 	1.00018 	0.02617 	0 	0.00832482
0.0836 	1.00018 	0.0261468 	0 	0.00838157
0.08415 	1.00018 	0.0261236 	0 	0.00843832
0.0847 	1.00018 	0.0261004 	0 	0.00849506
0.08525 	1.00018 	0.0260773 	0 	0.00855181
0.0858 	1.00018 	0.0260541 	0 	0.00860856
0.08635 	1.00018 	0.0260309 	0 	0.0086653
0.0869 	1.00018 	0.0260077 	0 	0.00872205
0.08745 	1.00018 	0.0259845 	0 	0.00877879
0.088 	1.00018 	0.0259614 	0 	0.00883554
0.08855 	1.00018 	0.0259382 	0 	0.00889229
0.0891 	1.00018 	0.025915 	0 	0.00894903
0.08965 	1.00018 	0.0258918 	0 	0.00900578
0.0902 	1.00018 	0.0258686 	0 	0.00906272
0.09075 	1.00018 	0.0258453 	0 	0.00911999
0.0913 	1.00018 	0.025822 	0 	0.00917726
0.09185 	1.00018 	0.0257987 	0 	0.00923453
0.0924 	1.00018 	0.0257754 	0 	0.0092918
0.09295 	1.00018 	0.0257521 	0 	0.00934908
0.0935 	1.00018 	0.0257288 	0 	0.00940635
0.09405 	1.00018 	0.0257055 	0 	0.00946362
0.0946 	1.00018 	0.0256822 	0 	0.00952089
0.09515 	1.00018 	0.0256589 	0 	0.00957816
0.0957 	1.00018 	0.0256356 	0 	0.00963543
0.09625 	1.00018 	0.0256123 	0 	0.00969271
0.0968 	1.00018 	0.025589 	0 	0.00974998
0.09735 	1.00018 	0.0255657 	0 	0.00980725
0.0979 	1.00018 	0.0255424 	0 	0.00986452
0.09845 	1.00018 	0.0255192 	0 	0.00992179
0.099 	1.00018 	0.0254959 	0 	0.00997906
0.09955 	1.00018 	0.0254726 	0 	0.0100363
0.1001 	1.00018 	0.0254492 	0 	0.0100937
0.10065 	1.00018 	0.0254257 	0 	0.0101515
0.1012 	1.00018 	0.0254022 	0 	0.0102093
0.10175 	1.00018 	0.0253787 	0 	0.010267
0.1023 	1.00018 	0.0253553 	0 	0.0103248
0.10285 	1.00018 	0.0253318 	0 	0.0103826
0.1034 	1.00018 	0.0253083 	0 	0.0104404
0.10395 	1.00018 	0.0252848 	0 	0.0104981
0.1045 	1.00018 	0.0252613 	0 	0.0105559
0.10505 	1.00018 	0.0252378 	0 	0.0106137
0.1056 	1.00018 	0.0252143 	0 	0.0106715
0.10615 	1.00018 	0.0251908 	0 	0.0107292
0.1067 	1.00018 	0.0251673 	0 	0.010787
0.10725 	1.00018 	0.0251438 	0 	0.0108448
0.1078 	1.00018 	0.0251203 	0 	0.0109026
0.10835 	1.00018 	0.0250968 	0 	0.0109603
0.1089 	1.00018 	0.0250733 	0 	0.0110181
0.10945 	1.00018 	0.0250498 	0 	0.0110759
0.11 	1.00018 	0.0250263 	0 	0.0111337
0.11055 	1.00018 	0.0250026 	0 	0.011192
0.1111 	1.00018 	0.0249789 	0 	0.0112503
0.11165 	1.00018 	0.0249551 	0 	0.0113086
0.1122 	1.00018 	0.0249314 	0 	0.0113669
0.11275 	1.00018 	0.0249076 	0 	0.0114252
0.1133 	1.00018 	0.0248839 	0 	0.0114835
0.11385 	1.00018 	0.0248602 	0 	0.0115418
0.1144 	1.00018 	0.0248364 	0 	0.0116001
0.11495 	1.00018 	0.0248127 	0 	0.0116585
0.1155 	1.00018 	0.024789 	0 	0.0117168
0.11605 	1.00018 	0.0247652 	0 	0.0117751
0.1166 	1.00018 	0.0247415 	0 	0.0118334
0.11715 	1.00018 	0.0247177 	0 	0.0118917
0.1177 	1.00018 	0.024694 	0 	0.01195
0.11825 	1.00018 	0.0246703 	0 	0.0120083
0.1188 	1.00018 	0.0246465 	0 	0.0120666
0.11935 	1.00018 	0.0246228 	0 	0.0121249
0.1199 	1.00018 	0.024599 	0 	0.0121832
0.12045 	1.00018 	0.0245751 	0 	0.012242
0.121 	1.00018 	0.0245511 	0 	0.0123009
0.12155 	1.00018 	0.0245271 	0 	0.0123597
0.1221 	1.00018 	0.0245031 	0 	0.0124186
0.12265 	1.00018 	0.0244791 	0 	0.0124775
0.1232 	1.00018 	0.0244551 	0 	0.0125363
0.12375 	1.00018 	0.0244311 	0 	0.0125952
0.1243 	1.00018 	0.0244071 	0 	0.0126541
0.12485 	1.00018 	0.0243831 	0 	0.0127129
0.1254 	1.00018 	0.0243591 	0 	0.0127718
0.12595 	1.00018 	0.0243351 	0 	0.0128307
0.1265 	1.00018 	0.0243111 	0 	0.0128895
0.12705 	1.00018 	0.024287 	0 	0.0129484
0.1276 	1.00018 	0.024263 	0 	0.0130073
0.12815 	1.00018 	0.024239 	0 	0.0130661
0.1287 	1.00018 	0.024215 	0 	0.013125
0.12925 	1.00018 	0.024191 	0 	0.0131839
0.1298 	1.00018 	0.024167 	0 	0.0132428
0.13035 	1.00018 	0.0241428 	0 	0.013302
0.1309 	1.00018 	0.0241186 	0 	0.0133614
0.13145 	1.00018 	0.0240943 	0 	0.0134209
0.132 	1.00018 	0.02407 	0 	0.0134804
0.13255 	1.00018 	0.0240457 	0 	0.0135398
0.1331 	1.00018 	0.0240214 	0 	0.0135993
0.13365 	1.00018 	0.0239971 	0 	0.0136587
0.1342 	1.00018 	0.0239729 	0 	0.0137182
0.13475 	1.00018 	0.0239486 	0 	0.0137776
0.1353 	1.00018 	0.0239243 	0 	0.0138371
0.13585 	1.00018 	0.0239 	0 	0.0138965
0.1364 	1.00018 	0.0238757 	0 	0.013956
0.13695 	1.00018 	0.0238514 	0 	0.0140154
0.1375 	1.00018 	0.0238271 	0 	0.0140749
0.13805 	1.00018 	0.0238029 	0 	0.0141343
0.1386 	1.00018 	0.0237786 	0 	0.0141938
0.13915 	1.00018 	0.0237543 	0 	0.0142532
0.1397 	1.00018 	0.02373 	0 	0.0143127
0.14025 	1.00018 	0.0237056 	0 	0.0143724
0.1408 	1.00018 	0.023681 	0 	0.0144325
0.14135 	1.00018 	0.0236564 	0 	0.0144926
0.1419 	1.00018 	0.0236318 	0 	0.0145527
0.14245 	1.00018 	0.0236072 	0 	0.0146128
0.143 	1.00018 	0.0235826 	0 	0.0146729
0.14355 	1.00018 	0.023558 	0 	0.014733
0.1441 	1.00018 	0.0235334 	0 	0.0147931
0.14465 	1.00018 	0.0235089 	0 	0.0148532
0.1452 	1.00018 	0.0234843 	0 	0.0149133
0.14575 	1.00018 	0.0234597 	0 	0.0149734
0.1463 	1.00018 	0.0234351 	0 	0.0150334
0.14685 	1.00018 	0.0234105 	0 	0.0150935
0.1474 	1.00018 	0.0233859 	0 	0.0151536
0.14795 	1.00018 	0.0233613 	0 	0.0152137
0.1485 	1.00018 	0.0233367 	0 	0.0152738
0.14905 	1.00018 	0.0233121 	0 	0.0153339
0.1496 	1.00018 	0.0232875 	0 	0.015394
0.15015 	1.00018 	0.0232629 	0 	0.0154543
0.1507 	1.00018 	0.0232379 	0 	0.015515
0.15125 	1.00018 	0.023213 	0 	0.0155758
0.1518 	1.00018 	0.0231881 	0 	0.0156365
0.15235 	1.00018 	0.0231632 	0 	0.0156973
0.1529 	1.00018 	0.0231383 	0 	0.0157581
0.15345 	1.00018 	0.0231133 	0 	0.0158188
0.154 	1.00018 	0.0230884 	0 	0.0158796
0.15455 	1.00018 	0.0230635 	0 	0.0159403
0.1551 	1.00018 	0.0230386 	0 	0.0160011
0.15565 	1.00018 	0.0230136 	0 	0.0160618
0.1562 	1.00018 	0.0229887 	0 	0.0161226
0.15675 	1.00018 	0.0229638 	0 	0.0161833
0.1573 	1.00018 	0.0229389 	0 	0.0162441
0.15785 	1.00018 	0.0229139 	0 	0.0163049
0.1584 	1.00018 	0.022889 	0 	0.0163656
0.15895 	1.00018 	0.0228641 	0 	0.0164264
0.1595 	1.00018 	0.0228392 	0 	0.0164871
0.16005 	1.00018 	0.0228142 	0 	0.0165479
0.1606 	1.00018 	0.0227889 	0 	0.0166094
0.16115 	1.00018 	0.0227637 	0 	0.0166708
0.1617 	1.00018 	0.0227384 	0 	0.0167322
0.16225 	1.00018 	0.0227131 	0 	0.0167936
0.1628 	1.00018 	0.0226878 	0 	0.0168551
0.16335 	1.00018 	0.0226625 	0 	0.0169165
0.1639 	1.00018 	0.0226373 	0 	0.0169779
0.16445 	1.00018 	0.022612 	0 	0.0170393
0.165 	1.00018 	0.0225867 	0 	0.0171008
0.16555 	1.00018 	0.0225614 	0 	0.0171622
0.1661 	1.00018 	0.0225361 	0 	0.0172236
0.16665 	1.00018 	0.0225109 	0 	0.017285
0.1672 	1.00018 	0.0224856 	0 	0.0173465
0.16775 	1.00018 	0.0224603 	0 	0.0174079
0.1683 	1.00018 	0.022435 	0 	0.0174693
0.16885 	1.00018 	0.0224097 	0 	0.0175307
0.1694 	1.00018 	0.0223844 	0 	0.0175922
0.16995 	1.00018 	0.0223592 	0 	0.0176536
0.1705 	1.00018 	0.0223336 	0 	0.0177157
0.17105 	1.00018 	0.0223079 	0 	0.0177778
0.1716 	1.00018 	0.0222823 	0 	0.0178399
0.17215 	1.00018 	0.0222566 	0 	0.017902
0.1727 	1.00018 	0.022231 	0 	0.0179641
0.17325 	1.00018 	0.0222053 	0 	0.0180263
0.1738 	1.00018 	0.0221797 	0 	0.0180884
0.17435 	1.00018 	0.022154 	0 	0.0181505
0.1749 	1.00018 	0.0221283 	0 	0.0182126
0.17545 	1.00018 	0.0221027 	0 	0.0182747
0.176 	1.00018 	0.022077 	0 	0.0183369
0.17655 	1.00018 	0.0220514 	0 	0.018399
0.1771 	1.00018 	0.0220257 	0 	0.0184611
0.17765 	1.00018 	0.0220001 	0 	0.0185232
0.1782 	1.00018 	0.0219744 	0 	0.0185854
0.17875 	1.00018 	0.0219488 	0 	0.0186475
0.1793 	1.00018 	0.0219231 	0 	0.0187096
0.17985 	1.00018 	0.0218975 	0 	0.0187717
0.1804 	1.00018 	0.0218716 	0 	0.0188344
0.18095 	1.00018 	0.0218455 	0 	0.0188972
0.1815 	1.00018 	0.0218195 	0 	0.0189601
0.18205 	1.00018 	0.0217935 	0 	0.0190229
0.1826 	1.00018 	0.0217674 	0 	0.0190858
0.18315 	1.00018 	0.0217414 	0 	0.0191486
0.1837 	1.00018 	0.0217154 	0 	0.0192115
0.18425 	1.00018 	0.0216893 	0 	0.0192744
0.1848 	1.00018 	0.0216633 	0 	0.0193372
0.18535 	1.00018 	0.0216373 	0 	0.0194001
0.1859 	1.00018 	0.0216112 	0 	0.0194629
0.18645 	1.00018 	0.0215852 	0 	0.0195258
0.187 	1.00018 	0.0215592 	0 	0.0195886
0.18755 	1.00018 	0.0215331 	0 	0.0196515
0.1881 	1.00018 	0.0215071 	0 	0.0197143
0.18865 	1.00018 	0.0214811 	0 	0.0197772
0.1892 	1.00018 	0.021455 	0 	0.01984
0.18975 	1.00018 	0.021429 	0 	0.0199029
0.1903 	1.00018 	0.0214027 	0 	0.0199662
0.19085 	1.00018 	0.0213763 	0 	0.0200298
0.1914 	1.00018 	0.0213499 	0 	0.0200934
0.19195 	1.00018 	0.0213234 	0 	0.020157
0.1925 	1.00018 	0.021297 	0 	0.0202206
0.19305 	1.00018 	0.0212705 	0 	0.0202842
0.1936 	1.00018 	0.0212441 	0 	0.0203478
0.19415 	1.00018 	0.0212177 	0 	0.0204114
0.1947 	1.00018 	0.0211912 	0 	0.020475
0.19525 	1.00018 	0.0211648 	0 	0.0205386
0.1958 	1.00018 	0.0211383 	0 	0.0206022
0.19635 	1.00018 	0.0211119 	0 	0.0206658
0.1969 	1.00018 	0.0210855 	0 	0.0207294
0.19745 	1.00018 	0.021059 	0 	0.020793
0.198 	1.00018 	0.0210326 	0 	0.0208566
0.19855 	1.00018 	0.0210061 	0 	0.0209202
0.1991 	1.00018 	0.0209797 	0 	0.0209838
0.19965 	1.00018 	0.0209533 	0 	0.0210474
0.2002 	1.00018 	0.0209267 	0 	0.0211112
0.20075 	1.00018 	0.0208998 	0 	0.0211756
0.2013 	1.00018 	0.0208729 	0 	0.02124
0.20185 	1.00018 	0.0208461 	0 	0.0213044
0.2024 	1.00018 	0.0208192 	0 	0.0213687
0.20295 	1.00018 	0.0207923 	0 	0.0214331
0.2035 	1.00018 	0.0207655 	0 	0.0214975
0.20405 	1.00018 	0.0207386 	0 	0.0215618
0.2046 	1.00018 	0.0207117 	0 	0.0216262
0.20515 	1.00018 	0.0206849 	0 	0.0216906
0.2057 	1.00018 	0.020658 	0 	0.0217549
0.20625 	1.00018 	0.0206311 	0 	0.0218193
0.2068 	1.00018 	0.0206043 	0 	0.0218837
0.20735 	1.00018 	0.0205774 	0 	0.021948
0.2079 	1.00018 	0.0205506 	0 	0.0220124
0.20845 	1.00018 	0.0205237 	0 	0.0220768
0.209 	1.00018 	0.0204968 	0 	0.0221412
0.20955 	1.00018 	0.02047 	0 	0.0222055
0.2101 	1.00018 	0.020443 	0 	0.02227
0.21065 	1.00018 	0.0204157 	0 	0.0223352
0.2112 	1.00018 	0.0203884 	0 	0.0224004
0.21175 	1.00018 	0.0203611 	0 	0.0224656
0.2123 	1.00018 	0.0203338 	0 	0.0225308
0.21285 	1.00018 	0.0203065 	0 	0.022596
0.2134 	1.00018 	0.0202792 	0 	0.0226612
0.21395 	1.00018 	0.0202519 	0 	0.0227264
0.2145 	1.00018 	0.0202246 	0 	0.0227916
0.21505 	1.00018 	0.0201973 	0 	0.0228567
0.2156 	1.00018 	0.02017 	0 	0.0229219
0.21615 	1.00018 	0.0201427 	0 	0.0229871
0.2167 	1.00018 	0.0201154 	0 	0.0230523
0.21725 	1.00018 	0.0200881 	0 	0.0231175
0.2178 	1.00018 	0.0200608 	0 	0.0231827
0.21835 	1.00018 	0.0200335 	0 	0.0232479
0.2189 	1.00018 	0.0200062 	0 	0.0233131
0.21945 	1.00018 	0.0199789 	0 	0.0233783
0.22 	1.00018 	0.0199516 	0 	0.0234434
0.22055 	1.00018 	0.0199239 	0 	0.0235095
0.2211 	1.00018 	0.0198961 	0 	0.0235755
0.22165 	1.00018 	0.0198684 	0 	0.0236416
0.2222 	1.00018 	0.0198406 	0 	0.0237076
0.22275 	1.00018 	0.0198129 	0 	0.0237737
0.2233 	1.00018 	0.0197851 	0 	0.0238397
0.22385 	1.00018 	0.0197574 	0 	0.0239057
0.2244 	1.00018 	0.0197296 	0 	0.0239718
0.22495 	1.00018 	0.0197019 	0 	0.0240378
0.2255 	1.00018 	0.0196741 	0 	0.0241039
0.22605 	1.00018 	0.0196464 	0 	0.0241699
0.2266 	1.00018 	0.0196187 	0 	0.0242359
0.22715 	1.00018 	0.0195909 	0 	0.024302
0.2277 	1.00018 	0.0195632 	0 	0.024368
0.22825 	1.00018 	0.0195354 	0 	0.0244341
0.2288 	1.00018 	0.0195077 	0 	0.0245001
0.22935 	1.00018 	0.0194799 	0 	0.0245661
0.2299 	1.00018 	0.0194522 	0 	0.0246322
0.23045 	1.00018 	0.019424 	0 	0.0246989
0.231 	1.00018 	0.0193958 	0 	0.0247659
0.23155 	1.00018 	0.0193676 	0 	0.0248328
0.2321 	1.00018 	0.0193394 	0 	0.0248997
0.23265 	1.00018 	0.0193112 	0 	0.0249666
0.2332 	1.00018 	0.019283 	0 	0.0250335
0.23375 	1.00018 	0.0192548 	0 	0.0251004
0.2343 	1.00018 	0.0192266 	0 	0.0251673
0.23485 	1.00018 	0.0191984 	0 	0.0252342
0.2354 	1.00018 	0.0191702 	0 	0.0253011
0.23595 	1.00018 	0.0191419 	0 	0.025368
0.2365 	1.00018 	0.0191137 	0 	0.025435
0.23705 	1.00018 	0.0190855 	0 	0.0255019
0.2376 	1.00018 	0.0190573 	0 	0.0255688
0.23815 	1.00018 	0.0190291 	0 	0.0256357
0.2387 	1.00018 	0.0190009 	0 	0.0257026
0.23925 	1.00018 	0.0189727 	0 	0.0257695
0.2398 	1.00018 	0.0189445 	0 	0.0258364
0.24035 	1.00018 	0.018916 	0 	0.0259039
0.2409 	1.00018 	0.0188873 	0 	0.0259717
0.24145 	1.00018 	0.0188586 	0 	0.0260395
0.242 	1.00018 	0.0188299 	0 	0.0261073
0.24255 	1.00018 	0.0188012 	0 	0.0261751
0.2431 	1.00018 	0.0187725 	0 	0.026243
0.24365 	1.00018 	0.0187438 	0 	0.0263108
0.2442 	1.00018 	0.0187151 	0 	0.0263786
0.24475 	1.00018 	0.0186864 	0 	0.0264464
0.2453 	1.00018 	0.0186577 	0 	0.0265142
0.24585 	1.00018 	0.018629 	0 	0.026582
0.2464 	1.00018 	0.0186003 	0 	0.0266498
0.24695 	1.00018 	0.0185716 	0 	0.0267176
0.2475 	1.00018 	0.0185429 	0 	0.0267854
0.24805 	1.00018 	0.0185143 	0 	0.0268532
0.2486 	1.00018 	0.0184856 	0 	0.026921
0.24915 	1.00018 	0.0184569 	0 	0.0269889
0.2497 	1.00018 	0.0184282 	0 	0.0270567
0.25025 	1.00018 	0.0183993 	0 	0.0271249
0.2508 	1.00018 	0.0183701 	0 	0.0271936
0.25135 	1.00018 	0.0183409 	0 	0.0272624
0.2519 	1.00018 	0.0183117 	0 	0.0273311
0.25245 	1.00018 	0.0182825 	0 	0.0273999
0.253 	1.00018 	0.0182533 	0 	0.0274686
0.25355 	1.00018 	0.0182241 	0 	0.0275374
0.2541 	1.00018 	0.018195 	0 	0.0276061
0.25465 	1.00018 	0.0181658 	0 	0.0276748
0.2552 	1.00018 	0.0181366 	0 	0.0277436
0.25575 	1.00018 	0.0181074 	0 	0.0278123
0.2563 	1.00018 	0.0180782 	0 	0.0278811
0.25685 	1.00018 	0.018049 	0 	0.0279498
0.2574 	1.00018 	0.0180198 	0 	0.0280185
0.25795 	1.00018 	0.0179907 	0 	0.0280873
0.2585 	1.00018 	0.0179615 	0 	0.028156
0.25905 	1.00018 	0.0179323 	0 	0.0282248
0.2596 	1.00018 	0.0179031 	0 	0.0282935
0.26015 	1.00018 	0.0178738 	0 	0.0283625
0.2607 	1.00018 	0.0178441 	0 	0.0284323
0.26125 	1.00018 	0.0178144 	0 	0.028502
0.2618 	1.00018 	0.0177847 	0 	0.0285718
0.26235 	1.00018 	0.0177551 	0 	0.0286415
0.2629 	1.00018 	0.0177254 	0 	0.0287112
0.26345 	1.00018 	0.0176957 	0 	0.028781
0.264 	1.00018 	0.017666 	0 	0.0288507
0.26455 	1.00018 	0.0176363 	0 	0.0289205
0.2651 	1.00018 	0.0176067 	0 	0.0289902
0.26565 	1.00018 	0.017577 	0 	0.0290599
0.2662 	1.00018 	0.0175473 	0 	0.0291297
0.26675 	1.00018 	0.0175176 	0 	0.0291994
0.2673 	1.00018 	0.017488 	0 	0.0292692
0.26785 	1.00018 	0.0174583 	0 	0.0293389
0.2684 	1.00018 	0.0174286 	0 	0.0294087
0.26895 	1.00018 	0.0173989 	0 	0.0294784
0.2695 	1.00018 	0.0173692 	0 	0.0295481
0.27005 	1.00018 	0.0173395 	0 	0.029618
0.2706 	1.00018 	0.0173093 	0 	0.0296888
0.27115 	1.00018 	0.0172792 	0 	0.0297595
0.2717 	1.00018 	0.017249 	0 	0.0298303
0.27225 	1.00018 	0.0172188 	0 	0.0299011
0.2728 	1.00018 	0.0171886 	0 	0.0299719
0.27335 	1.00018 	0.0171584 	0 	0.0300427
0.2739 	1.00018 	0.0171282 	0 	0.0301134
0.27445 	1.00018 	0.0170981 	0 	0.0301842
0.275 	1.00018 	0.0170679 	0 	0.030255
0.27555 	1.00018 	0.0170377 	0 	0.0303258
0.2761 	1.00018 	0.0170075 	0 	0.0303966
0.27665 	1.00018 	0.0169773 	0 	0.0304673
0.2772 	1.00018 	0.0169471 	0 	0.0305381
0.27775 	1.00018 	0.016917 	0 	0.0306089
0.2783 	1.00018 	0.0168868 	0 	0.0306797
0.27885 	1.00018 	0.0168566 	0 	0.0307505
0.2794 	1.00018 	0.0168264 	0 	0.0308212
0.27995 	1.00018 	0.0167962 	0 	0.030892
0.2805 	1.00018 	0.0167656 	0 	0.0309637
0.28105 	1.00018 	0.0167349 	0 	0.0310355
0.2816 	1.00018 	0.0167042 	0 	0.0311073
0.28215 	1.00018 	0.0166735 	0 	0.0311791
0.2827 	1.00018 	0.0166428 	0 	0.0312509
0.28325 	1.00018 	0.0166121 	0 	0.0313227
0.2838 	1.00018 	0.0165814 	0 	0.0313945
0.28435 	1.00018 	0.0165507 	0 	0.0314663
0.2849 	1.00018 	0.01652 	0 	0.0315381
0.28545 	1.00018 	0.0164893 	0 	0.0316099
0.286 	1.00018 	0.0164586 	0 	0.0316817
0.28655 	1.00018 	0.0164279 	0 	0.0317536
0.2871 	1.00018 	0.0163972 	0 	0.0318254
0.28765 	1.00018 	0.0163665 	0 	0.0318972
0.2882 	1.00018 	0.0163358 	0 	0.031969
0.28875 	1.00018 	0.0163051 	0 	0.0320408
0.2893 	1.00018 	0.0162744 	0 	0.0321126
0.28985 	1.00018 	0.0162437 	0 	0.0321844
0.2904 	1.00018 	0.0162127 	0 	0.0322569
0.29095 	1.00018 	0.0161815 	0 	0.0323298
0.2915 	1.00018 	0.0161502 	0 	0.0324026
0.29205 	1.00018 	0.016119 	0 	0.0324755
0.2926 	1.00018 	0.0160878 	0 	0.0325483
0.29315 	1.00018 	0.0160566 	0 	0.0326212
0.2937 	1.00018 	0.0160254 	0 	0.032694
0.29425 	1.00018 	0.0159942 	0 	0.0327669
0.2948 	1.00018 	0.015963 	0 	0.0328397
0.29535 	1.00018 	0.0159317 	0 	0.0329126
0.2959 	1.00018 	0.0159005 	0 	0.0329854
0.29645 	1.00018 	0.0158693 	0 	0.0330582
0.297 	1.00018 	0.0158381 	0 	0.0331311
0.29755 	1.00018 	0.0158069 	0 	0.0332039
0.2981 	1.00018 	0.0157757 	0 	0.0332768
0.29865 	1.00018 	0.0157444 	0 	0.0333496
0.2992 	1.00018 	0.0157132 	0 	0.0334225
0.29975 	1.00018 	0.015682 	0 	0.0334953
0.3003 	1.00018 	0.0156505 	0 	0.0335688
0.30085 	1.00018 	0.0156188 	0 	0.0336427
0.3014 	1.00018 	0.015587 	0 	0.0337166
0.30195 	1.00018 	0.0155552 	0 	0.0337906
0.3025 	1.00018 	0.0155235 	0 	0.0338645
0.30305 	1.00018 	0.0154917 	0 	0.0339384
0.3036 	1.00018 	0.01546 	0 	0.0340124
0.30415 	1.00018 	0.0154282 	0 	0.0340863
0.3047 	1.00018 	0.0153965 	0 	0.0341602
0.30525 	1.00018 	0.0153647 	0 	0.0342342
0.3058 	1.00018 	0.015333 	0 	0.0343081
0.30635 	1.00018 	0.0153012 	0 	0.0343821
0.3069 	1.00018 	0.0152695 	0 	0.034456
0.30745 	1.00018 	0.0152377 	0 	0.0345299
0.308 	1.00018 	0.0152059 	0 	0.0346039
0.30855 	1.00018 	0.0151742 	0 	0.0346778
0.3091 	1.00018 	0.0151424 	0 	0.0347517
0.30965 	1.00018 	0.0151107 	0 	0.0348257
0.3102 	1.00018 	0.0150787 	0 	0.0349
0.31075 	1.00018 	0.0150464 	0 	0.0349751
0.3113 	1.00018 	0.0150141 	0 	0.0350501
0.31185 	1.00018 	0.0149818 	0 	0.0351252
0.3124 	1.00017 	0.0149495 	0 	0.0352003
0.31295 	1.00017 	0.0149172 	0 	0.0352754
0.3135 	1.00017 	0.0148849 	0 	0.0353504
0.31405 	1.00017 	0.0148526 	0 	0.0354255
0.3146 	1.00017 	0.0148203 	0 	0.0355006
0.31515 	1.00017 	0.014788 	0 	0.0355756
0.3157 	1.00017 	0.0147557 	0 	0.0356507
0.31625 	1.00017 	0.0147234 	0 	0.0357258
0.3168 	1.00017 	0.0146911 	0 	0.0358009
0.31735 	1.00017 	0.0146588 	0 	0.0358759
0.3179 	1.00017 	0.0146265 	0 	0.035951
0.31845 	1.00017 	0.0145942 	0 	0.0360261
0.319 	1.00017 	0.0145619 	0 	0.0361011
0.31955 	1.00017 	0.0145296 	0 	0.0361762
0.3201 	1.00017 	0.0144972 	0 	0.0362515
0.32065 	1.00017 	0.0144644 	0 	0.0363277
0.3212 	1.00017 	0.0144315 	0 	0.036404
0.32175 	1.00017 	0.0143987 	0 	0.0364803
0.3223 	1.00017 	0.0143658 	0 	0.0365565
0.32285 	1.00017 	0.014333 	0 	0.0366328
0.3234 	1.00017 	0.0143001 	0 	0.036709
0.32395 	1.00017 	0.0142672 	0 	0.0367853
0.3245 	1.00017 	0.0142344 	0 	0.0368615
0.32505 	1.00017 	0.0142015 	0 	0.0369378
0.3256 	1.00017 	0.0141687 	0 	0.0370141
0.32615 	1.00017 	0.0141358 	0 	0.0370903
0.3267 	1.00017 	0.014103 	0 	0.0371666
0.32725 	1.00017 	0.0140701 	0 	0.0372428
0.3278 	1.00017 	0.0140373 	0 	0.0373191
0.32835 	1.00017 	0.0140044 	0 	0.0373953
0.3289 	1.00017 	0.0139716 	0 	0.0374716
0.32945 	1.00017 	0.0139387 	0 	0.0375479
0.33 	1.00017 	0.0139059 	0 	0.0376241
0.33055 	1.00017 	0.0138724 	0 	0.0377016
0.3311 	1.00017 	0.013839 	0 	0.0377791
0.33165 	1.00017 	0.0138056 	0 	0.0378566
0.3322 	1.00017 	0.0137722 	0 	0.0379341
0.33275 	1.00017 	0.0137388 	0 	0.0380116
0.3333 	1.00017 	0.0137053 	0 	0.0380891
0.33385 	1.00017 	0.0136719 	0 	0.0381666
0.3344 	1.00017 	0.0136385 	0 	0.0382441
0.33495 	1.00017 	0.0136051 	0 	0.0383216
0.3355 	1.00017 	0.0135716 	0 	0.038399
0.33605 	1.00017 	0.0135382 	0 	0.0384765
0.3366 	1.00017 	0.0135048 	0 	0.038554
0.33715 	1.00017 	0.0134714 	0 	0.0386315
0.3377 	1.00017 	0.0134379 	0 	0.038709
0.33825 	1.00017 	0.0134045 	0 	0.0387865
0.3388 	1.00017 	0.0133711 	0 	0.038864
0.33935 	1.00017 	0.0133377 	0 	0.0389415
0.3399 	1.00017 	0.0133043 	0 	0.039019
0.34045 	1.00017 	0.0132704 	0 	0.0390975
0.341 	1.00017 	0.0132363 	0 	0.0391763
0.34155 	1.00017 	0.0132023 	0 	0.039255
0.3421 	1.00017 	0.0131683 	0 	0.0393338
0.34265 	1.00017 	0.0131343 	0 	0.0394125
0.3432 	1.00017 	0.0131003 	0 	0.0394913
0.34375 	1.00017 	0.0130663 	0 	0.03957
0.3443 	1.00017 	0.0130323 	0 	0.0396487
0.34485 	1.00017 	0.0129983 	0 	0.0397275
0.3454 	1.00017 	0.0129643 	0 	0.0398062
0.34595 	1.00017 	0.0129303 	0 	0.039885
0.3465 	1.00017 	0.0128963 	0 	0.0399637
0.34705 	1.00017 	0.0128623 	0 	0.0400425
0.3476 	1.00017 	0.0128283 	0 	0.0401212
0.34815 	1.00017 	0.0127943 	0 	0.0402
0.3487 	1.00017 	0.0127603 	0 	0.0402787
0.34925 	1.00017 	0.0127263 	0 	0.0403575
0.3498 	1.00017 	0.0126923 	0 	0.0404362
0.35035 	1.00017 	0.0126579 	0 	0.0405158
0.3509 	1.00017 	0.0126233 	0 	0.0405958
0.35145 	1.00017 	0.0125887 	0 	0.0406758
0.352 	1.00017 	0.0125541 	0 	0.0407558
0.35255 	1.00017 	0.0125195 	0 	0.0408358
0.3531 	1.00017 	0.0124849 	0 	0.0409158
0.35365 	1.00017 	0.0124503 	0 	0.0409958
0.3542 	1.00017 	0.0124157 	0 	0.0410758
0.35475 	1.00017 	0.0123811 	0 	0.0411558
0.3553 	1.00017 	0.0123465 	0 	0.0412358
0.35585 	1.00017 	0.0123119 	0 	0.0413158
0.3564 	1.00017 	0.0122773 	0 	0.0413958
0.35695 	1.00017 	0.0122427 	0 	0.0414758
0.3575 	1.00017 	0.0122081 	0 	0.0415558
0.35805 	1.00017 	0.0121735 	0 	0.0416358
0.3586 	1.00017 	0.0121389 	0 	0.0417158
0.35915 	1.00017 	0.0121043 	0 	0.0417958
0.3597 	1.00017 	0.0120697 	0 	0.0418758
0.36025 	1.00017 	0.0120348 	0 	0.0419564
0.3608 	1.00017 	0.0119996 	0 	0.0420377
0.36135 	1.00017 	0.0119644 	0 	0.0421189
0.3619 	1.00017 	0.0119293 	0 	0.0422002
0.36245 	1.00017 	0.0118941 	0 	0.0422815
0.363 	1.00016 	0.0118589 	0 	0.0423628
0.36355 	1.00016 	0.0118237 	0 	0.0424441
0.3641 	1.00016 	0.0117885 	0 	0.0425254
0.36465 	1.00016 	0.0117533 	0 	0.0426067
0.3652 	1.00016 	0.0117181 	0 	0.0426879
0.36575 	1.00016 	0.0116829 	0 	0.0427692
0.3663 	1.00016 	0.0116477 	0 	0.0428505
0.36685 	1.00016 	0.0116126 	0 	0.0429318
0.3674 	1.00016 	0.0115774 	0 	0.0430131
0.36795 	1.00016 	0.0115422 	0 	0.0430944
0.3685 	1.00016 	0.011507 	0 	0.0431756
0.36905 	1.00016 	0.0114718 	0 	0.0432569
0.3696 	1.00016 	0.0114366 	0 	0.0433382
0.37015 	1.00016 	0.0114013 	0 	0.0434199
0.3707 	1.00016 	0.0113655 	0 	0.0435025
0.37125 	1.00016 	0.0113297 	0 	0.0435851
0.3718 	1.00016 	0.0112939 	0 	0.0436677
0.37235 	1.00016 	0.0112581 	0 	0.0437503
0.3729 	1.00016 	0.0112223 	0 	0.0438329
0.37345 	1.00016 	0.0111865 	0 	0.0439156
0.374 	1.00016 	0.0111508 	0 	0.0439982
0.37455 	1.00016 	0.011115 	0 	0.0440808
0.3751 	1.00016 	0.0110792 	0 	0.0441634
0.37565 	1.00016 	0.0110434 	0 	0.044246
0.3762 	1.00016 	0.0110076 	0 	0.0443286
0.37675 	1.00016 	0.0109718 	0 	0.0444112
0.3773 	1.00016 	0.010936 	0 	0.0444939
0.37785 	1.00016 	0.0109003 	0 	0.0445765
0.3784 	1.00016 	0.0108645 	0 	0.0446591
0.37895 	1.00016 	0.0108287 	0 	0.0447417
0.3795 	1.00016 	0.0107929 	0 	0.0448243
0.38005 	1.00016 	0.0107571 	0 	0.0449071
0.3806 	1.00016 	0.0107207 	0 	0.044991
0.38115 	1.00016 	0.0106843 	0 	0.045075
0.3817 	1.00016 	0.0106479 	0 	0.045159
0.38225 	1.00016 	0.0106115 	0 	0.045243
0.3828 	1.00016 	0.0105751 	0 	0.045327
0.38335 	1.00016 	0.0105387 	0 	0.0454109
0.3839 	1.00016 	0.0105023 	0 	0.0454949
0.38445 	1.00016 	0.0104659 	0 	0.0455789
0.385 	1.00016 	0.0104295 	0 	0.0456629
0.38555 	1.00016 	0.0103931 	0 	0.0457469
0.3861 	1.00016 	0.0103567 	0 	0.0458309
0.38665 	1.00016 	0.0103203 	0 	0.0459148
0.3872 	1.00016 	0.0102839 	0 	0.0459988
0.38775 	1.00016 	0.0102476 	0 	0.0460828
0.3883 	1.00016 	0.0102112 	0 	0.0461668
0.38885 	1.00016 	0.0101748 	0 	0.0462508
0.3894 	1.00016 	0.0101384 	0 	0.0463348
0.38995 	1.00016 	0.010102 	0 	0.0464187
0.3905 	1.00016 	0.010065 	0 	0.046504
0.39105 	1.00016 	0.010028 	0 	0.0465894
0.3916 	1.00016 	0.00999102 	0 	0.0466747
0.39215 	1.00016 	0.00995401 	0 	0.0467601
0.3927 	1.00016 	0.009917 	0 	0.0468455
0.39325 	1.00016 	0.00988 	0 	0.0469309
0.3938 	1.00016 	0.00984299 	0 	0.0470163
0.39435 	1.00016 	0.00980599 	0 	0.0471016
0.3949 	1.00016 	0.00976898 	0 	0.047187
0.39545 	1.00016 	0.00973198 	0 	0.0472724
0.396 	1.00016 	0.00969497 	0 	0.0473578
0.39655 	1.00016 	0.00965797 	0 	0.0474432
0.3971 	1.00016 	0.00962096 	0 	0.0475285