0 	0.999972 	0 	0 	0
0.00055 	0.999973 	-0.00285209 	0 	9.78644e-05
0.0011 	0.999974 	-0.00570418 	0 	0.000195729
0.00165 	0.999975 	-0.00855627 	0 	0.000293593
0.0022 	0.999976 	-0.0114084 	0 	0.000391458
0.00275 	0.999977 	-0.0142605 	0 	0.000489322
0.0033 	0.999978 	-0.0171125 	0 	0.000587186
0.00385 	0.999979 	-0.0199646 	0 	0.000685051
0.0044 	0.99998 	-0.0228167 	0 	0.000782915
0.00495 	0.999981 	-0.0256688 	0 	0.00088078
0.0055 	0.999982 	-0.0285209 	0 	0.000978644
0.00605 	0.999983 	-0.031373 	0 	0.00107651
0.0066 	0.999984 	-0.0342251 	0 	0.00117437
0.00715 	0.999985 	-0.0370772 	0 	0.00127224
0.0077 	0.999986 	-0.0399293 	0 	0.0013701
0.00825 	0.999987 	-0.0427814 	0 	0.00146797
0.0088 	0.999988 	-0.0456335 	0 	0.00156583
0.00935 	0.999989 	-0.0484855 	0 	0.0016637
0.0099 	0.99999 	-0.0513376 	0 	0.00176156
0.01045 	0.999992 	-0.0527421 	0 	0.00187194
0.011 	0.999993 	-0.0538248 	0 	0.00198509
0.01155 	0.999994 	-0.0549076 	0 	0.00209825
0.0121 	0.999996 	-0.0559904 	0 	0.0022114
0.01265 	0.999997 	-0.0570731 	0 	0.00232456
0.0132 	0.999999 	-0.0581559 	0 	0.00243771
0.01375 	1 	-0.0592386 	0 	0.00255087
0.0143 	1 	-0.0603214 	0 	0.00266403
0.01485 	1 	-0.0614041 	0 	0.00277718
0.0154 	1 	-0.0624869 	0 	0.00289034
0.01595 	1.00001 	-0.0635696 	0 	0.00300349
0.0165 	1.00001 	-0.0646524 	0 	0.00311665
0.01705 	1.00001 	-0.0657352 	0 	0.00322981
0.0176 	1.00001 	-0.0668179 	0 	0.00334296
0.01815 	1.00001 	-0.0679007 	0 	0.00345612
0.0187 	1.00001 	-0.0689834 	0 	0.00356927
0.01925 	1.00001 	-0.0700662 	0 	0.00368243
0.0198 	1.00002 	-0.0711489 	0 	0.00379559
0.02035 	1.00002 	-0.0718585 	0 	0.00386273
0.0209 	1.00002 	-0.0723549 	0 	0.00390358
0.02145 	1.00002 	-0.0728512 	0 	0.00394442
0.022 	1.00002 	-0.0733476 	0 	0.00398527
0.02255 	1.00002 	-0.073844 	0 	0.00402612
0.0231 	1.00002 	-0.0743403 	0 	0.00406697
0.02365 	1.00002 	-0.0748367 	0 	0.00410782
0.0242 	1.00002 	-0.075333 	0 	0.00414866
0.02475 	1.00002 	-0.0758294 	0 	0.00418951
0.0253 	1.00002 	-0.0763258 	0 	0.00423036
0.02585 	1.00002 	-0.0768221 	0 	0.00427121
0.0264 	1.00002 	-0.0773185 	0 	0.00431206
0.02695 	1.00002 	-0.0778149 	0 	0.00435291
0.0275 	1.00002 	-0.0783112 	0 	0.00439375
0.02805 	1.00002 	-0.0788076 	0 	0.0044346
0.0286 	1.00002 	-0.0793039 	0 	0.00447545
0.02915 	1.00002 	-0.0798003 	0 	0.0045163
0.0297 	1.00002 	-0.0802967 	0 	0.00455715
0.03025 	1.00002 	-0.080563 	0 	0.00456834
0.0308 	1.00002 	-0.0805532 	0 	0.00454394
0.03135 	1.00002 	-0.0805435 	0 	0.00451954
0.0319 	1.00002 	-0.0805337 	0 	0.00449514
0.03245 	1.00002 	-0.080524 	0 	0.00447074
0.033 	1.00002 	-0.0805142 	0 	0.00444635
0.03355 	1.00002 	-0.0805045 	0 	0.00442195
0.0341 	1.00002 	-0.0804947 	0 	0.00439755
0.03465 	1.00002 	-0.080485 	0 	0.00437315
0.0352 	1.00002 	-0.0804752 	0 	0.00434875
0.03575 	1.00002 	-0.0804655 	0 	0.00432435
0.0363 	1.00002 	-0.0804557 	0 	0.00429996
0.03685 	1.00002 	-0.080446 	0 	0.00427556
0.0374 	1.00002 	-0.0804362 	0 	0.00425116
0.03795 	1.00002 	-0.0804265 	0 	0.00422676
0.0385 	1.00002 	-0.0804167 	0 	0.00420236
0.03905 	1.00002 	-0.080407 	0 	0.00417797
0.0396 	1.00002 	-0.0803972 	0 	0.00415357
0.04015 	1.00002 	-0.0803588 	0 	0.00412567
0.0407 	1.00002 	-0.0802441 	0 	0.00408846
0.04125 	1.00002 	-0.0801294 	0 	0.00405125
0.0418 	1.00002 	-0.0800147 	0 	0.00401403
0.04235 	1.00002 	-0.0799 	0 	0.00397682
0.0429 	1.00002 	-0.0797853 	0 	0.0039396
0.04345 	1.00002 	-0.0796706 	0 	0.00390239
0.044 	1.00002 	-0.0795558 	0 	0.00386517
0.04455 	1.00002 	-0.0794411 	0 	0.00382796
0.0451 	1.00002 	-0.0793264 	0 	0.00379074
0.04565 	1.00002 	-0.0792117 	0 	0.00375353
0.0462 	1.00002 	-0.079097 	0 	0.00371632
0.04675 	1.00002 	-0.0789823 	0 	0.0036791
0.0473 	1.00002 	-0.0788676 	0 	0.00364189
0.04785 	1.00002 	-0.0787529 	0 	0.00360467
0.0484 	1.00002 	-0.0786381 	0 	0.00356746
0.04895 	1.00002 	-0.0785234 	0 	0.00353024
0.0495 	1.00002 	-0.0784087 	0 	0.00349303
0.05005 	1.00002 	-0.078299 	0 	0.00345654
0.0506 	1.00002 	-0.078239 	0 	0.00342732
0.05115 	1.00002 	-0.0781791 	0 	0.0033981
0.0517 	1.00002 	-0.0781191 	0 	0.00336888
0.05225 	1.00002 	-0.0780591 	0 	0.00333965
0.0528 	1.00002 	-0.0779992 	0 	0.00331043
0.05335 	1.00002 	-0.0779392 	0 	0.00328121
0.0539 	1.00002 	-0.0778793 	0 	0.00325199
0.05445 	1.00002 	-0.0778193 	0 	0.00322276
0.055 	1.00002 	-0.0777594 	0 	0.00319354
0.05555 	1.00002 	-0.0776994 	0 	0.00316432
0.0561 	1.00002 	-0.0776394 	0 	0.0031351
0.05665 	1.00002 	-0.0775795 	0 	0.00310587
0.0572 	1.00002 	-0.0775195 	0 	0.00307665
0.05775 	1.00002 	-0.0774596 	0 	0.00304743
0.0583 	1.00002 	-0.0773996 	0 	0.00301821
0.05885 	1.00002 	-0.0773396 	0 	0.00298898
0.0594 	1.00002 	-0.0772797 	0 	0.00295976
0.05995 	1.00002 	-0.0772197 	0 	0.00293054
0.0605 	1.00002 	-0.0771994 	0 	0.00290815
0.06105 	1.00002 	-0.0771831 	0 	0.00288644
0.0616 	1.00002 	-0.0771668 	0 	0.00286473
0.06215 	1.00002 	-0.0771504 	0 	0.00284302
0.0627 	1.00002 	-0.0771341 	0 	0.00282132
0.06325 	1.00002 	-0.0771178 	0 	0.00279961
0.0638 	1.00002 	-0.0771015 	0 	0.0027779
0.06435 	1.00002 	-0.0770851 	0 	0.00275619
0.0649 	1.00002 	-0.0770688 	0 	0.00273448
0.06545 	1.00002 	-0.0770525 	0 	0.00271277
0.066 	1.00002 	-0.0770361 	0 	0.00269107
0.06655 	1.00002 	-0.0770198 	0 	0.00266936
0.0671 	1.00002 	-0.0770035 	0 	0.00264765
0.06765 	1.00002 	-0.0769871 	0 	0.00262594
0.0682 	1.00002 	-0.0769708 	0 	0.00260423
0.06875 	1.00002 	-0.0769545 	0 	0.00258253
0.0693 	1.00002 	-0.0769382 	0 	0.00256082
0.06985 	1.00002 	-0.0769218 	0 	0.00253911
0.0704 	1.00002 	-0.0769113 	0 	0.00251841
0.07095 	1.00002 	-0.0769029 	0 	0.00249808
0.0715 	1.00001 	-0.0768946 	0 	0.00247775
0.07205 	1.00001 	-0.0768862 	0 	0.00245742
0.0726 	1.00001 	-0.0768779 	0 	0.00243709
0.07315 	1.00001 	-0.0768695 	0 	0.00241677
0.0737 	1.00001 	-0.0768611 	0 	0.00239644
0.07425 	1.00001 	-0.0768528 	0 	0.00237611
0.0748 	1.00001 	-0.0768444 	0 	0.00235578
0.07535 	1.00001 	-0.076836 	0 	0.00233546
0.0759 	1.00001 	-0.0768277 	0 	0.00231513
0.07645 	1.00001 	-0.0768193 	0 	0.0022948
0.077 	1.00001 	-0.076811 	0 	0.00227447
0.07755 	1.00001 	-0.0768026 	0 	0.00225415
0.0781 	1.00001 	-0.0767942 	0 	0.00223382
0.07865 	1.00001 	-0.0767859 	0 	0.00221349
0.0792 	1.00001 	-0.0767775 	0 	0.00219316
0.07975 	1.00001 	-0.0767692 	0 	0.00217283
0.0803 	1.00001 	-0.0767552 	0 	0.00215123
0.08085 	1.00001 	-0.0767365 	0 	0.00212855
0.0814 	1.00001 	-0.0767179 	0 	0.00210587
0.08195 	1.00001 	-0.0766992 	0 	0.00208319
0.0825 	1.00001 	-0.0766806 	0 	0.00206052
0.08305 	1.00001 	-0.0766619 	0 	0.00203784
0.0836 	1.00001 	-0.0766432 	0 	0.00201516
0.08415 	1.00001 	-0.0766246 	0 	0.00199249
0.0847 	1.00001 	-0.0766059 	0 	0.00196981
0.08525 	1.00001 	-0.0765873 	0 	0.00194713
0.0858 	1.00001 	-0.0765686 	0 	0.00192446
0.08635 	1.00001 	-0.07655 	0 	0.00190178
0.0869 	1.00001 	-0.0765313 	0 	0.0018791
0.08745 	1.00001 	-0.0765126 	0 	0.00185642
0.088 	1.00001 	-0.076494 	0 	0.00183375
0.08855 	1.00001 	-0.0764753 	0 	0.00181107
0.0891 	1.00001 	-0.0764567 	0 	0.00178839
0.08965 	1.00001 	-0.076438 	0 	0.00176572
0.0902 	1.00001 	-0.0764138 	0 	0.00174209
0.09075 	1.00001 	-0.0763798 	0 	0.0017168
0.0913 	1.00001 	-0.0763459 	0 	0.0016915
0.09185 	1 	-0.0763119 	0 	0.00166621
0.0924 	1 	-0.076278 	0 	0.00164091
0.09295 	1 	-0.076244 	0 	0.00161562
0.0935 	1 	-0.0762101 	0 	0.00159033
0.09405 	1 	-0.0761761 	0 	0.00156503
0.0946 	1 	-0.0761422 	0 	0.00153974
0.09515 	1 	-0.0761082 	0 	0.00151445
0.0957 	1 	-0.0760742 	0 	0.00148915
0.09625 	1 	-0.0760403 	0 	0.00146386
0.0968 	1 	-0.0760063 	0 	0.00143857
0.09735 	1 	-0.0759724 	0 	0.00141327
0.0979 	1 	-0.0759384 	0 	0.00138798
0.09845 	1 	-0.0759045 	0 	0.00136269
0.099 	0.999999 	-0.0758705 	0 	0.00133739
0.09955 	0.999999 	-0.0758366 	0 	0.0013121
0.1001 	0.999998 	-0.0758 	0 	0.00128668
0.10065 	0.999997 	-0.0757518 	0 	0.00126071
0.1012 	0.999997 	-0.0757036 	0 	0.00123474
0.10175 	0.999996 	-0.0756554 	0 	0.00120877
0.1023 	0.999995 	-0.0756072 	0 	0.00118279
0.10285 	0.999994 	-0.075559 	0 	0.00115682
0.1034 	0.999994 	-0.0755108 	0 	0.00113085
0.10395 	0.999993 	-0.0754626 	0 	0.00110488
0.1045 	0.999992 	-0.0754144 	0 	0.0010789
0.10505 	0.999991 	-0.0753662 	0 	0.00105293
0.1056 	0.999991 	-0.0753179 	0 	0.00102696
0.10615 	0.99999 	-0.0752697 	0 	0.00100099
0.1067 	0.999989 	-0.0752215 	0 	0.000975013
0.10725 	0.999989 	-0.0751733 	0 	0.00094904
0.1078 	0.999988 	-0.0751251 	0 	0.000923068
0.10835 	0.999987 	-0.0750769 	0 	0.000897095
0.1089 	0.999986 	-0.0750287 	0 	0.000871123
0.10945 	0.999986 	-0.0749805 	0 	0.000845151
0.11 	0.999985 	-0.0749323 	0 	0.000819178
0.11055 	0.999984 	-0.074875 	0 	0.000795743
0.1111 	0.999984 	-0.0748178 	0 	0.000772308
0.11165 	0.999984 	-0.0747605 	0 	0.000748873
0.1122 	0.999983 	-0.0747033 	0 	0.000725438
0.11275 	0.999983 	-0.074646 	0 	0.000702003
0.1133 	0.999983 	-0.0745888 	0 	0.000678568
0.11385 	0.999982 	-0.0745315 	0 	0.000655134
0.1144 	0.999982 	-0.0744743 	0 	0.000631699
0.11495 	0.999982 	-0.074417 	0 	0.000608264
0.1155 	0.999981 	-0.0743598 	0 	0.000584829
0.11605 	0.999981 	-0.0743025 	0 	0.000561394
0.1166 	0.999981 	-0.0742453 	0 	0.000537959
0.11715 	0.99998 	-0.074188 	0 	0.000514524
0.1177 	0.99998 	-0.0741308 	0 	0.000491089
0.11825 	0.99998 	-0.0740735 	0 	0.000467654
0.1188 	0.999979 	-0.0740163 	0 	0.000444219
0.11935 	0.999979 	-0.073959 	0 	0.000420784
0.1199 	0.999979 	-0.0739018 	0 	0.000397349
0.12045 	0.999979 	-0.0738449 	0 	0.000379473
0.121 	0.99998 	-0.073788 	0 	0.000362832
0.12155 	0.999981 	-0.0737312 	0 	0.000346191
0.1221 	0.999981 	-0.0736744 	0 	0.00032955
0.12265 	0.999982 	-0.0736175 	0 	0.000312909
0.1232 	0.999983 	-0.0735607 	0 	0.000296268
0.12375 	0.999984 	-0.0735038 	0 	0.000279627
0.1243 	0.999984 	-0.073447 	0 	0.000262986
0.12485 	0.999985 	-0.0733902 	0 	0.000246345
0.1254 	0.999986 	-0.0733333 	0 	0.000229704
0.12595 	0.999987 	-0.0732765 	0 	0.000213063
0.1265 	0.999987 	-0.0732196 	0 	0.000196422
0.12705 	0.999988 	-0.0731628 	0 	0.000179782
0.1276 	0.999989 	-0.073106 	0 	0.000163141
0.12815 	0.99999 	-0.0730491 	0 	0.0001465
0.1287 	0.99999 	-0.0729923 	0 	0.000129859
0.12925 	0.999991 	-0.0729355 	0 	0.000113218
0.1298 	0.999992 	-0.0728786 	0 	9.65767e-05
0.13035 	0.999992 	-0.0728283 	0 	8.60382e-05
0.1309 	0.999993 	-0.0727818 	0 	7.89869e-05
0.13145 	0.999993 	-0.0727353 	0 	7.19355e-05
0.132 	0.999994 	-0.0726888 	0 	6.48842e-05
0.13255 	0.999994 	-0.0726423 	0 	5.78328e-05
0.1331 	0.999995 	-0.0725958 	0 	5.07814e-05
0.13365 	0.999996 	-0.0725493 	0 	4.37301e-05
0.1342 	0.999996 	-0.0725027 	0 	3.66787e-05
0.13475 	0.999997 	-0.0724562 	0 	2.96274e-05
0.1353 	0.999997 	-0.0724097 	0 	2.2576e-05
0.13585 	0.999998 	-0.0723632 	0 	1.55247e-05
0.1364 	0.999998 	-0.0723167 	0 	8.4733e-06
0.13695 	0.999999 	-0.0722702 	0 	1.42194e-06
0.1375 	0.999999 	-0.0722237 	0 	-5.62942e-06
0.13805 	1 	-0.0721771 	0 	-1.26808e-05
0.1386 	1 	-0.0721306 	0 	-1.97321e-05
0.13915 	1 	-0.0720841 	0 	-2.67835e-05
0.1397 	1 	-0.0720376 	0 	-3.38349e-05
0.14025 	1 	-0.0719954 	0 	-3.73003e-05
0.1408 	1 	-0.0719585 	0 	-3.64628e-05
0.14135 	1 	-0.0719215 	0 	-3.56252e-05
0.1419 	1 	-0.0718845 	0 	-3.47876e-05
0.14245 	1 	-0.0718476 	0 	-3.39501e-05
0.143 	1 	-0.0718106 	0 	-3.31125e-05
0.14355 	1 	-0.0717736 	0 	-3.2275e-05
0.1441 	1 	-0.0717367 	0 	-3.14374e-05
0.14465 	1 	-0.0716997 	0 	-3.05998e-05
0.1452 	1 	-0.0716627 	0 	-2.97623e-05
0.14575 	1 	-0.0716258 	0 	-2.89247e-05
0.1463 	1 	-0.0715888 	0 	-2.80871e-05
0.14685 	1 	-0.0715518 	0 	-2.72496e-05
0.1474 	1 	-0.0715148 	0 	-2.6412e-05
0.14795 	1 	-0.0714779 	0 	-2.55745e-05
0.1485 	1 	-0.0714409 	0 	-2.47369e-05
0.14905 	1 	-0.0714039 	0 	-2.38993e-05
0.1496 	1 	-0.071367 	0 	-2.30618e-05
0.15015 	1 	-0.0713286 	0 	-2.13688e-05
0.1507 	0.999999 	-0.0712864 	0 	-1.73948e-05
0.15125 	0.999998 	-0.0712442 	0 	-1.34208e-05
0.1518 	0.999998 	-0.0712021 	0 	-9.44683e-06
0.15235 	0.999997 	-0.0711599 	0 	-5.47284e-06
0.1529 	0.999996 	-0.0711177 	0 	-1.49884e-06
0.15345 	0.999995 	-0.0710755 	0 	2.47515e-06
0.154 	0.999995 	-0.0710334 	0 	6.44914e-06
0.15455 	0.999994 	-0.0709912 	0 	1.04231e-05
0.1551 	0.999993 	-0.070949 	0 	1.43971e-05
0.15565 	0.999992 	-0.0709068 	0 	1.83711e-05
0.1562 	0.999992 	-0.0708646 	0 	2.23451e-05
0.15675 	0.999991 	-0.0708225 	0 	2.63191e-05
0.1573 	0.99999 	-0.0707803 	0 	3.02931e-05
0.15785 	0.999989 	-0.0707381 	0 	3.42671e-05
0.1584 	0.999989 	-0.0706959 	0 	3.82411e-05
0.15895 	0.999988 	-0.0706538 	0 	4.22151e-05
0.1595 	0.999987 	-0.0706116 	0 	4.61891e-05
0.16005 	0.999986 	-0.0705678 	0 	4.99282e-05
0.1606 	0.999979 	-0.0705081 	0 	5.13187e-05
0.16115 	0.999972 	-0.0704483 	0 	5.27092e-05
0.1617 	0.999965 	-0.0703886 	0 	5.40997e-05
0.16225 	0.999958 	-0.0703288 	0 	5.54902e-05
0.1628 	0.999951 	-0.0702691 	0 	5.68807e-05
0.16335 	0.999944 	-0.0702093 	0 	5.82712e-05
0.1639 	0.999937 	-0.0701496 	0 	5.96617e-05
0.16445 	0.99993 	-0.0700898 	0 	6.10522e-05
0.165 	0.999923 	-0.0700301 	0 	6.24426e-05
0.16555 	0.999916 	-0.0699703 	0 	6.38331e-05
0.1661 	0.999909 	-0.0699106 	0 	6.52236e-05
0.16665 	0.999902 	-0.0698508 	0 	6.66141e-05
0.1672 	0.999895 	-0.0697911 	0 	6.80046e-05
0.16775 	0.999888 	-0.0697313 	0 	6.93951e-05
0.1683 	0.999881 	-0.0696716 	0 	7.07856e-05
0.16885 	0.999874 	-0.0696118 	0 	7.21761e-05
0.1694 	0.999867 	-0.0695521 	0 	7.35666e-05
0.16995 	0.99986 	-0.0694923 	0 	7.49571e-05
0.1705 	0.999851 	-0.0694264 	0 	6.88171e-05
0.17105 	0.999841 	-0.0693598 	0 	6.1924e-05
0.1716 	0.999832 	-0.0692932 	0 	5.50309e-05
0.17215 	0.999823 	-0.0692266 	0 	4.81378e-05
0.1727 	0.999814 	-0.0691601 	0 	4.12447e-05
0.17325 	0.999805 	-0.0690935 	0 	3.43517e-05
0.1738 	0.999796 	-0.0690269 	0 	2.74586e-05
0.17435 	0.999786 	-0.0689603 	0 	2.05655e-05
0.1749 	0.999777 	-0.0688937 	0 	1.36724e-05
0.17545 	0.999768 	-0.0688272 	0 	6.77933e-06
0.176 	0.999759 	-0.0687606 	0 	-1.13751e-07
0.17655 	0.99975 	-0.068694 	0 	-7.00683e-06
0.1771 	0.999741 	-0.0686274 	0 	-1.38999e-05
0.17765 	0.999731 	-0.0685608 	0 	-2.0793e-05
0.1782 	0.999722 	-0.0684943 	0 	-2.76861e-05
0.17875 	0.999713 	-0.0684277 	0 	-3.45792e-05
0.1793 	0.999704 	-0.0683611 	0 	-4.14722e-05
0.17985 	0.999695 	-0.0682945 	0 	-4.83653e-05
0.1804 	0.999693 	-0.0682432 	0 	-6.38166e-05
0.18095 	0.999695 	-0.0681976 	0 	-8.24773e-05
0.1815 	0.999697 	-0.068152 	0 	-0.000101138
0.18205 	0.999698 	-0.0681064 	0 	-0.000119799
0.1826 	0.9997 	-0.0680609 	0 	-0.000138459
0.18315 	0.999702 	-0.0680153 	0 	-0.00015712
0.1837 	0.999703 	-0.0679697 	0 	-0.000175781
0.18425 	0.999705 	-0.0679241 	0 	-0.000194441
0.1848 	0.999706 	-0.0678785 	0 	-0.000213102
0.18535 	0.999708 	-0.0678329 	0 	-0.000231763
0.1859 	0.99971 	-0.0677873 	0 	-0.000250423
0.18645 	0.999711 	-0.0677417 	0 	-0.000269084
0.187 	0.999713 	-0.0676961 	0 	-0.000287744
0.18755 	0.999714 	-0.0676505 	0 	-0.000306405
0.1881 	0.999716 	-0.067605 	0 	-0.000325066
0.18865 	0.999718 	-0.0675594 	0 	-0.000343726
0.1892 	0.999719 	-0.0675138 	0 	-0.000362387
0.18975 	0.999721 	-0.0674682 	0 	-0.000381048
0.1903 	0.999727 	-0.0674409 	0 	-0.000406271
0.19085 	0.999736 	-0.0674289 	0 	-0.000436964
0.1914 	0.999745 	-0.0674169 	0 	-0.000467657
0.19195 	0.999755 	-0.067405 	0 	-0.00049835
0.1925 	0.999764 	-0.067393 	0 	-0.000529043
0.19305 	0.999773 	-0.067381 	0 	-0.000559736
0.1936 	0.999782 	-0.067369 	0 	-0.000590429
0.19415 	0.999792 	-0.067357 	0 	-0.000621122
0.1947 	0.999801 	-0.067345 	0 	-0.000651815
0.19525 	0.99981 	-0.067333 	0 	-0.000682508
0.1958 	0.99982 	-0.067321 	0 	-0.000713201
0.19635 	0.999829 	-0.0673091 	0 	-0.000743894
0.1969 	0.999838 	-0.0672971 	0 	-0.000774587
0.19745 	0.999848 	-0.0672851 	0 	-0.00080528
0.198 	0.999857 	-0.0672731 	0 	-0.000835972
0.19855 	0.999866 	-0.0672611 	0 	-0.000866665
0.1991 	0.999875 	-0.0672491 	0 	-0.000897358
0.19965 	0.999885 	-0.0672371 	0 	-0.000928051
0.2002 	0.999893 	-0.0672334 	0 	-0.00096218
0.20075 	0.999898 	-0.0672441 	0 	-0.00100232
0.2013 	0.999903 	-0.0672548 	0 	-0.00104246
0.20185 	0.999908 	-0.0672656 	0 	-0.00108261
0.2024 	0.999913 	-0.0672763 	0 	-0.00112275
0.20295 	0.999918 	-0.067287 	0 	-0.00116289
0.2035 	0.999923 	-0.0672977 	0 	-0.00120303
0.20405 	0.999929 	-0.0673085 	0 	-0.00124317
0.2046 	0.999934 	-0.0673192 	0 	-0.00128331
0.20515 	0.999939 	-0.0673299 	0 	-0.00132346
0.2057 	0.999944 	-0.0673406 	0 	-0.0013636
0.20625 	0.999949 	-0.0673513 	0 	-0.00140374
0.2068 	0.999954 	-0.0673621 	0 	-0.00144388
0.20735 	0.999959 	-0.0673728 	0 	-0.00148402
0.2079 	0.999964 	-0.0673835 	0 	-0.00152416
0.20845 	0.99997 	-0.0673942 	0 	-0.00156431
0.209 	0.999975 	-0.0674049 	0 	-0.00160445
0.20955 	0.99998 	-0.0674157 	0 	-0.00164459
0.2101 	0.999984 	-0.0674279 	0 	-0.00168564
0.21065 	0.999985 	-0.0674467 	0 	-0.0017308
0.2112 	0.999985 	-0.0674656 	0 	-0.00177596
0.21175 	0.999986 	-0.0674845 	0 	-0.00182113
0.2123 	0.999986 	-0.0675033 	0 	-0.00186629
0.21285 	0.999987 	-0.0675222 	0 	-0.00191145
0.2134 	0.999987 	-0.0675411 	0 	-0.00195661
0.21395 	0.999988 	-0.0675599 	0 	-0.00200177
0.2145 	0.999988 	-0.0675788 	0 	-0.00204693
0.21505 	0.999988 	-0.0675977 	0 	-0.00209209
0.2156 	0.999989 	-0.0676166 	0 	-0.00213725
0.21615 	0.999989 	-0.0676354 	0 	-0.00218241
0.2167 	0.99999 	-0.0676543 	0 	-0.00222757
0.21725 	0.99999 	-0.0676732 	0 	-0.00227273
0.2178 	0.999991 	-0.067692 	0 	-0.00231789
0.21835 	0.999991 	-0.0677109 	0 	-0.00236306
0.2189 	0.999992 	-0.0677298 	0 	-0.00240822
0.21945 	0.999992 	-0.0677486 	0 	-0.00245338
0.22 	0.999993 	-0.0677675 	0 	-0.00249854
0.22055 	0.999993 	-0.0677889 	0 	-0.00254465
0.2211 	0.999992 	-0.0678104 	0 	-0.00259076
0.22165 	0.999992 	-0.0678318 	0 	-0.00263687
0.2222 	0.999992 	-0.0678533 	0 	-0.00268298
0.22275 	0.999992 	-0.0678747 	0 	-0.0027291
0.2233 	0.999992 	-0.0678962 	0 	-0.00277521
0.22385 	0.999991 	-0.0679176 	0 	-0.00282132
0.2244 	0.999991 	-0.0679391 	0 	-0.00286743
0.22495 	0.999991 	-0.0679605 	0 	-0.00291354
0.2255 	0.999991 	-0.0679819 	0 	-0.00295965
0.22605 	0.999991 	-0.0680034 	0 	-0.00300576
0.2266 	0.99999 	-0.0680248 	0 	-0.00305188
0.22715 	0.99999 	-0.0680463 	0 	-0.00309799
0.2277 	0.99999 	-0.0680677 	0 	-0.0031441
0.22825 	0.99999 	-0.0680892 	0 	-0.00319021
0.2288 	0.99999 	-0.0681106 	0 	-0.00323632
0.22935 	0.999989 	-0.068132 	0 	-0.00328243
0.2299 	0.999989 	-0.0681535 	0 	-0.00332854
0.23045 	0.999984 	-0.0681824 	0 	-0.00337442
0.231 	0.999977 	-0.0682131 	0 	-0.00342025
0.23155 	0.99997 	-0.0682437 	0 	-0.00346607
0.2321 	0.999964 	-0.0682744 	0 	-0.0035119
0.23265 	0.999957 	-0.068305 	0 	-0.00355773
0.2332 	0.99995 	-0.0683356 	0 	-0.00360355
0.23375 	0.999943 	-0.0683663 	0 	-0.00364938
0.2343 	0.999937 	-0.0683969 	0 	-0.0036952
0.23485 	0.99993 	-0.0684275 	0 	-0.00374103
0.2354 	0.999923 	-0.0684582 	0 	-0.00378686
0.23595 	0.999917 	-0.0684888 	0 	-0.00383268
0.2365 	0.99991 	-0.0685194 	0 	-0.00387851
0.23705 	0.999903 	-0.0685501 	0 	-0.00392433
0.2376 	0.999897 	-0.0685807 	0 	-0.00397016
0.23815 	0.99989 	-0.0686113 	0 	-0.00401599
0.2387 	0.999883 	-0.068642 	0 	-0.00406181
0.23925 	0.999877 	-0.0686726 	0 	-0.00410764
0.2398 	0.99987 	-0.0687033 	0 	-0.00415346
0.24035 	0.999859 	-0.0687437 	0 	-0.00420041
0.2409 	0.999846 	-0.0687898 	0 	-0.00424801
0.24145 	0.999834 	-0.0688359 	0 	-0.0042956
0.242 	0.999821 	-0.0688819 	0 	-0.00434319
0.24255 	0.999808 	-0.068928 	0 	-0.00439078
0.2431 	0.999795 	-0.0689741 	0 	-0.00443837
0.24365 	0.999782 	-0.0690202 	0 	-0.00448597
0.2442 	0.99977 	-0.0690662 	0 	-0.00453356
0.24475 	0.999757 	-0.0691123 	0 	-0.00458115
0.2453 	0.999744 	-0.0691584 	0 	-0.00462874
0.24585 	0.999731 	-0.0692045 	0 	-0.00467633
0.2464 	0.999718 	-0.0692505 	0 	-0.00472393
0.24695 	0.999705 	-0.0692966 	0 	-0.00477152
0.2475 	0.999693 	-0.0693427 	0 	-0.00481911
0.24805 	0.99968 	-0.0693888 	0 	-0.0048667
0.2486 	0.999667 	-0.0694348 	0 	-0.00491429
0.24915 	0.999654 	-0.0694809 	0 	-0.00496189
0.2497 	0.999641 	-0.069527 	0 	-0.00500948
0.25025 	0.999635 	-0.0695734 	0 	-0.00505866
0.2508 	0.999638 	-0.0696202 	0 	-0.00510974
0.25135 	0.99964 	-0.069667 	0 	-0.00516082
0.2519 	0.999643 	-0.0697138 	0 	-0.0052119
0.25245 	0.999646 	-0.0697606 	0 	-0.00526298
0.253 	0.999648 	-0.0698075 	0 	-0.00531406
0.25355 	0.999651 	-0.0698543 	0 	-0.00536514
0.2541 	0.999653 	-0.0699011 	0 	-0.00541622
0.25465 	0.999656 	-0.0699479 	0 	-0.0054673
0.2552 	0.999658 	-0.0699947 	0 	-0.00551838
0.25575 	0.999661 	-0.0700415 	0 	-0.00556946
0.2563 	0.999663 	-0.0700883 	0 	-0.00562055
0.25685 	0.999666 	-0.0701351 	0 	-0.00567163
0.2574 	0.999668 	-0.0701819 	0 	-0.00572271
0.25795 	0.999671 	-0.0702288 	0 	-0.00577379
0.2585 	0.999673 	-0.0702756 	0 	-0.00582487
0.25905 	0.999676 	-0.0703224 	0 	-0.00587595
0.2596 	0.999679 	-0.0703692 	0 	-0.00592703
0.26015 	0.999684 	-0.0704077 	0 	-0.00597864
0.2607 	0.999697 	-0.0704243 	0 	-0.00603164
0.26125 	0.99971 	-0.0704408 	0 	-0.00608464
0.2618 	0.999723 	-0.0704573 	0 	-0.00613765
0.26235 	0.999736 	-0.0704738 	0 	-0.00619065
0.2629 	0.999749 	-0.0704903 	0 	-0.00624365
0.26345 	0.999762 	-0.0705069 	0 	-0.00629665
0.264 	0.999776 	-0.0705234 	0 	-0.00634966
0.26455 	0.999789 	-0.0705399 	0 	-0.00640266
0.2651 	0.999802 	-0.0705564 	0 	-0.00645566
0.26565 	0.999815 	-0.070573 	0 	-0.00650867
0.2662 	0.999828 	-0.0705895 	0 	-0.00656167
0.26675 	0.999841 	-0.070606 	0 	-0.00661467
0.2673 	0.999854 	-0.0706225 	0 	-0.00666768
0.26785 	0.999867 	-0.070639 	0 	-0.00672068
0.2684 	0.99988 	-0.0706556 	0 	-0.00677368
0.26895 	0.999893 	-0.0706721 	0 	-0.00682669
0.2695 	0.999906 	-0.0706886 	0 	-0.00687969
0.27005 	0.999919 	-0.0707 	0 	-0.00693254
0.2706 	0.999923 	-0.0706595 	0 	-0.00698388
0.27115 	0.999926 	-0.0706191 	0 	-0.00703522
0.2717 	0.99993 	-0.0705787 	0 	-0.00708656
0.27225 	0.999934 	-0.0705383 	0 	-0.0071379
0.2728 	0.999938 	-0.0704979 	0 	-0.00718924
0.27335 	0.999942 	-0.0704575 	0 	-0.00724058
0.2739 	0.999946 	-0.0704171 	0 	-0.00729192
0.27445 	0.99995 	-0.0703767 	0 	-0.00734326
0.275 	0.999954 	-0.0703363 	0 	-0.0073946
0.27555 	0.999958 	-0.0702958 	0 	-0.00744594
0.2761 	0.999961 	-0.0702554 	0 	-0.00749729
0.27665 	0.999965 	-0.070215 	0 	-0.00754863
0.2772 	0.999969 	-0.0701746 	0 	-0.00759997
0.27775 	0.999973 	-0.0701342 	0 	-0.00765131
0.2783 	0.999977 	-0.0700938 	0 	-0.00770265
0.27885 	0.999981 	-0.0700534 	0 	-0.00775399
0.2794 	0.999985 	-0.070013 	0 	-0.00780533
0.27995 	0.999989 	-0.0699726 	0 	-0.00785667
0.2805 	0.999988 	-0.0698728 	0 	-0.0079038
0.28105 	0.999987 	-0.069767 	0 	-0.0079505
0.2816 	0.999985 	-0.0696613 	0 	-0.00799721
0.28215 	0.999984 	-0.0695556 	0 	-0.00804392
0.2827 	0.999983 	-0.0694499 	0 	-0.00809063
0.28325 	0.999981 	-0.0693441 	0 	-0.00813733
0.2838 	0.99998 	-0.0692384 	0 	-0.00818404
0.28435 	0.999979 	-0.0691327 	0 	-0.00823075
0.2849 	0.999977 	-0.0690269 	0 	-0.00827746
0.28545 	0.999976 	-0.0689212 	0 	-0.00832416
0.286 	0.999975 	-0.0688155 	0 	-0.00837087
0.28655 	0.999973 	-0.0687098 	0 	-0.00841758
0.2871 	0.999972 	-0.068604 	0 	-0.00846429
0.28765 	0.999971 	-0.0684983 	0 	-0.00851099
0.2882 	0.999969 	-0.0683926 	0 	-0.0085577
0.28875 	0.999968 	-0.0682869 	0 	-0.00860441
0.2893 	0.999967 	-0.0681811 	0 	-0.00865112
0.28985 	0.999965 	-0.0680754 	0 	-0.00869782
0.2904 	0.999951 	-0.0679314 	0 	-0.00874003
0.29095 	0.999932 	-0.0677731 	0 	-0.00878055
0.2915 	0.999912 	-0.0676148 	0 	-0.00882107
0.29205 	0.999893 	-0.0674565 	0 	-0.0088616
0.2926 	0.999874 	-0.0672981 	0 	-0.00890212
0.29315 	0.999854 	-0.0671398 	0 	-0.00894264
0.2937 	0.999835 	-0.0669815 	0 	-0.00898316
0.29425 	0.999816 	-0.0668232 	0 	-0.00902368
0.2948 	0.999797 	-0.0666649 	0 	-0.0090642
0.29535 	0.999777 	-0.0665066 	0 	-0.00910472
0.2959 	0.999758 	-0.0663482 	0 	-0.00914525
0.29645 	0.999739 	-0.0661899 	0 	-0.00918577
0.297 	0.999719 	-0.0660316 	0 	-0.00922629
0.29755 	0.9997 	-0.0658733 	0 	-0.00926681
0.2981 	0.999681 	-0.065715 	0 	-0.00930733
0.29865 	0.999662 	-0.0655567 	0 	-0.00934785
0.2992 	0.999642 	-0.0653983 	0 	-0.00938837
0.29975 	0.999623 	-0.06524 	0 	-0.0094289
0.3003 	0.999599 	-0.0650695 	0 	-0.0094649
0.30085 	0.999571 	-0.0648888 	0 	-0.00949715
0.3014 	0.999543 	-0.0647081 	0 	-0.0095294
0.30195 	0.999515 	-0.0645273 	0 	-0.00956165
0.3025 	0.999487 	-0.0643466 	0 	-0.00959389
0.30305 	0.999459 	-0.0641659 	0 	-0.00962614
0.3036 	0.999431 	-0.0639852 	0 	-0.00965839
0.30415 	0.999403 	-0.0638045 	0 	-0.00969064
0.3047 	0.999375 	-0.0636238 	0 	-0.00972289
0.30525 	0.999347 	-0.0634431 	0 	-0.00975513
0.3058 	0.999319 	-0.0632623 	0 	-0.00978738
0.30635 	0.999291 	-0.0630816 	0 	-0.00981963
0.3069 	0.999263 	-0.0629009 	0 	-0.00985188
0.30745 	0.999235 	-0.0627202 	0 	-0.00988412
0.308 	0.999207 	-0.0625395 	0 	-0.00991637
0.30855 	0.999179 	-0.0623588 	0 	-0.00994862
0.3091 	0.999151 	-0.062178 	0 	-0.00998087
0.30965 	0.999123 	-0.0619973 	0 	-0.0100131
0.3102 	0.999106 	-0.0618233 	0 	-0.0100413
0.31075 	0.999106 	-0.0616609 	0 	-0.0100624
0.3113 	0.999107 	-0.0614985 	0 	-0.0100834
0.31185 	0.999108 	-0.0613361 	0 	-0.0101045
0.3124 	0.999108 	-0.0611737 	0 	-0.0101256
0.31295 	0.999109 	-0.0610112 	0 	-0.0101466
0.3135 	0.99911 	-0.0608488 	0 	-0.0101677
0.31405 	0.99911 	-0.0606864 	0 	-0.0101887
0.3146 	0.999111 	-0.060524 	0 	-0.0102098
0.31515 	0.999112 	-0.0603616 	0 	-0.0102309
0.3157 	0.999112 	-0.0601992 	0 	-0.0102519
0.31625 	0.999113 	-0.0600368 	0 	-0.010273
0.3168 	0.999113 	-0.0598744 	0 	-0.0102941
0.31735 	0.999114 	-0.059712 	0 	-0.0103151
0.3179 	0.999115 	-0.0595496 	0 	-0.0103362
0.31845 	0.999115 	-0.0593872 	0 	-0.0103573
0.319 	0.999116 	-0.0592248 	0 	-0.0103783
0.31955 	0.999117 	-0.0590624 	0 	-0.0103994
0.3201 	0.999121 	-0.0589093 	0 	-0.0104183
0.32065 	0.999143 	-0.0587981 	0 	-0.0104273
0.3212 	0.999165 	-0.0586869 	0 	-0.0104363
0.32175 	0.999188 	-0.0585757 	0 	-0.0104453
0.3223 	0.99921 	-0.0584645 	0 	-0.0104543
0.32285 	0.999232 	-0.0583533 	0 	-0.0104633
0.3234 	0.999254 	-0.0582421 	0 	-0.0104724
0.32395 	0.999276 	-0.0581309 	0 	-0.0104814
0.3245 	0.999298 	-0.0580197 	0 	-0.0104904
0.32505 	0.99932 	-0.0579085 	0 	-0.0104994
0.3256 	0.999342 	-0.0577973 	0 	-0.0105084
0.32615 	0.999364 	-0.0576861 	0 	-0.0105174
0.3267 	0.999387 	-0.0575749 	0 	-0.0105265
0.32725 	0.999409 	-0.0574637 	0 	-0.0105355
0.3278 	0.999431 	-0.0573525 	0 	-0.0105445
0.32835 	0.999453 	-0.0572413 	0 	-0.0105535
0.3289 	0.999475 	-0.0571301 	0 	-0.0105625
0.32945 	0.999497 	-0.0570189 	0 	-0.0105716
0.33 	0.999519 	-0.0569077 	0 	-0.0105806
0.33055 	0.999537 	-0.0568531 	0 	-0.0105844
0.3311 	0.999554 	-0.0567984 	0 	-0.0105881
0.33165 	0.999571 	-0.0567438 	0 	-0.0105919
0.3322 	0.999588 	-0.0566892 	0 	-0.0105957
0.33275 	0.999605 	-0.0566345 	0 	-0.0105995
0.3333 	0.999623 	-0.0565799 	0 	-0.0106033
0.33385 	0.99964 	-0.0565252 	0 	-0.0106071
0.3344 	0.999657 	-0.0564706 	0 	-0.0106109
0.33495 	0.999674 	-0.0564159 	0 	-0.0106147
0.3355 	0.999691 	-0.0563613 	0 	-0.0106184
0.33605 	0.999709 	-0.0563066 	0 	-0.0106222
0.3366 	0.999726 	-0.056252 	0 	-0.010626
0.33715 	0.999743 	-0.0561973 	0 	-0.0106298
0.3377 	0.99976 	-0.0561427 	0 	-0.0106336
0.33825 	0.999777 	-0.056088 	0 	-0.0106374
0.3388 	0.999795 	-0.0560334 	0 	-0.0106412
0.33935 	0.999812 	-0.0559787 	0 	-0.010645
0.3399 	0.999829 	-0.0559241 	0 	-0.0106487
0.34045 	0.999835 	-0.0558962 	0 	-0.0106603
0.341 	0.999838 	-0.0558742 	0 	-0.0106736
0.34155 	0.999841 	-0.0558522 	0 	-0.0106869
0.3421 	0.999844 	-0.0558303 	0 	-0.0107002
0.34265 	0.999847 	-0.0558083 	0 	-0.0107135
0.3432 	0.99985 	-0.0557863 	0 	-0.0107268
0.34375 	0.999853 	-0.0557644 	0 	-0.0107401
0.3443 	0.999856 	-0.0557424 	0 	-0.0107533
0.34485 	0.99986 	-0.0557204 	0 	-0.0107666
0.3454 	0.999863 	-0.0556985 	0 	-0.0107799
0.34595 	0.999866 	-0.0556765 	0 	-0.0107932
0.3465 	0.999869 	-0.0556545 	0 	-0.0108065
0.34705 	0.999872 	-0.0556326 	0 	-0.0108198
0.3476 	0.999875 	-0.0556106 	0 	-0.0108331
0.34815 	0.999878 	-0.0555886 	0 	-0.0108464
0.3487 	0.999881 	-0.0555667 	0 	-0.0108597
0.34925 	0.999884 	-0.0555447 	0 	-0.010873
0.3498 	0.999887 	-0.0555227 	0 	-0.0108863
0.35035 	0.999883 	-0.055496 	0 	-0.0109148
0.3509 	0.999874 	-0.0554664 	0 	-0.0109519
0.35145 	0.999865 	-0.0554369 	0 	-0.0109891
0.352 	0.999856 	-0.0554074 	0 	-0.0110263
0.35255 	0.999847 	-0.0553779 	0 	-0.0110635
0.3531 	0.999838 	-0.0553483 	0 	-0.0111007
0.35365 	0.999829 	-0.0553188 	0 	-0.0111378
0.3542 	0.99982 	-0.0552893 	0 	-0.011175
0.35475 	0.999811 	-0.0552597 	0 	-0.0112122
0.3553 	0.999802 	-0.0552302 	0 	-0.0112494
0.35585 	0.999793 	-0.0552007 	0 	-0.0112866
0.3564 	0.999784 	-0.0551712 	0 	-0.0113238
0.35695 	0.999775 	-0.0551416 	0 	-0.0113609
0.3575 	0.999766 	-0.0551121 	0 	-0.0113981
0.35805 	0.999757 	-0.0550826 	0 	-0.0114353
0.3586 	0.999747 	-0.0550531 	0 	-0.0114725
0.35915 	0.999738 	-0.0550235 	0 	-0.0115097
0.3597 	0.999729 	-0.054994 	0 	-0.0115469
0.36025 	0.99972 	-0.0549458 	0 	-0.0115972
0.3608 	0.99971 	-0.0548752 	0 	-0.0116635
0.36135 	0.9997 	-0.0548046 	0 	-0.0117297
0.3619 	0.99969 	-0.0547339 	0 	-0.0117959
0.36245 	0.99968 	-0.0546633 	0 	-0.0118622
0.363 	0.99967 	-0.0545927 	0 	-0.0119284
0.36355 	0.99966 	-0.0545221 	0 	-0.0119946
0.3641 	0.99965 	-0.0544514 	0 	-0.0120609
0.36465 	0.999639 	-0.0543808 	0 	-0.0121271
0.3652 	0.999629 	-0.0543102 	0 	-0.0121933
0.36575 	0.999619 	-0.0542396 	0 	-0.0122596
0.3663 	0.999609 	-0.0541689 	0 	-0.0123258
0.36685 	0.999599 	-0.0540983 	0 	-0.012392
0.3674 	0.999589 	-0.0540277 	0 	-0.0124583
0.36795 	0.999579 	-0.0539571 	0 	-0.0125245
0.3685 	0.999569 	-0.0538864 	0 	-0.0125907
0.36905 	0.999559 	-0.0538158 	0 	-0.012657
0.3696 	0.999549 	-0.0537452 	0 	-0.0127232
0.37015 	0.999544 	-0.0536664 	0 	-0.0127948
0.3707 	0.999554 	-0.0535656 	0 	-0.0128806
0.37125 	0.999564 	-0.0534648 	0 	-0.0129665
0.3718 	0.999575 	-0.0533641 	0 	-0.0130523
0.37235 	0.999585 	-0.0532633 	0 	-0.0131381
0.3729 	0.999595 	-0.0531626 	0 	-0.013224