0 	1.00005 	0 	0 	0
0.00055 	1.00005 	0.00183512 	0 	-5.02448e-05
0.0011 	1.00005 	0.00367025 	0 	-0.00010049
0.00165 	1.00005 	0.00550537 	0 	-0.000150734
0.0022 	1.00005 	0.00734049 	0 	-0.000200979
0.00275 	1.00005 	0.00917561 	0 	-0.000251224
0.0033 	1.00005 	0.0110107 	0 	-0.000301469
0.00385 	1.00005 	0.0128459 	0 	-0.000351714
0.0044 	1.00005 	0.014681 	0 	-0.000401958
0.00495 	1.00005 	0.0165161 	0 	-0.000452203
0.0055 	1.00005 	0.0183512 	0 	-0.000502448
0.00605 	1.00005 	0.0201864 	0 	-0.000552693
0.0066 	1.00005 	0.0220215 	0 	-0.000602938
0.00715 	1.00005 	0.0238566 	0 	-0.000653182
0.0077 	1.00005 	0.0256917 	0 	-0.000703427
0.00825 	1.00005 	0.0275268 	0 	-0.000753672
0.0088 	1.00005 	0.029362 	0 	-0.000803917
0.00935 	1.00005 	0.0311971 	0 	-0.000854161
0.0099 	1.00005 	0.0330322 	0 	-0.000904406
0.01045 	1.00005 	0.0333677 	0 	-0.000954347
0.011 	1.00005 	0.03337 	0 	-0.00100422
0.01155 	1.00005 	0.0333722 	0 	-0.00105409
0.0121 	1.00005 	0.0333745 	0 	-0.00110397
0.01265 	1.00005 	0.0333767 	0 	-0.00115384
0.0132 	1.00005 	0.0333789 	0 	-0.00120372
0.01375 	1.00005 	0.0333812 	0 	-0.00125359
0.0143 	1.00005 	0.0333834 	0 	-0.00130346
0.01485 	1.00005 	0.0333857 	0 	-0.00135334
0.0154 	1.00005 	0.0333879 	0 	-0.00140321
0.01595 	1.00005 	0.0333902 	0 	-0.00145308
0.0165 	1.00006 	0.0333924 	0 	-0.00150296
0.01705 	1.00006 	0.0333947 	0 	-0.00155283
0.0176 	1.00006 	0.0333969 	0 	-0.00160271
0.01815 	1.00006 	0.0333992 	0 	-0.00165258
0.0187 	1.00006 	0.0334014 	0 	-0.00170245
0.01925 	1.00006 	0.0334037 	0 	-0.00175233
0.0198 	1.00006 	0.0334059 	0 	-0.0018022
0.02035 	1.00006 	0.0334028 	0 	-0.00185216
0.0209 	1.00006 	0.0333967 	0 	-0.00190217
0.02145 	1.00006 	0.0333905 	0 	-0.00195218
0.022 	1.00006 	0.0333843 	0 	-0.00200219
0.02255 	1.00006 	0.0333782 	0 	-0.0020522
0.0231 	1.00006 	0.033372 	0 	-0.00210221
0.02365 	1.00006 	0.0333658 	0 	-0.00215222
0.0242 	1.00006 	0.0333597 	0 	-0.00220223
0.02475 	1.00006 	0.0333535 	0 	-0.00225224
0.0253 	1.00006 	0.0333473 	0 	-0.00230225
0.02585 	1.00006 	0.0333412 	0 	-0.00235226
0.0264 	1.00006 	0.033335 	0 	-0.00240227
0.02695 	1.00006 	0.0333288 	0 	-0.00245228
0.0275 	1.00006 	0.0333227 	0 	-0.00250229
0.02805 	1.00006 	0.0333165 	0 	-0.0025523
0.0286 	1.00006 	0.0333104 	0 	-0.00260231
0.02915 	1.00006 	0.0333042 	0 	-0.00265232
0.0297 	1.00006 	0.033298 	0 	-0.00270233
0.03025 	1.00006 	0.033293 	0 	-0.00275243
0.0308 	1.00006 	0.0332895 	0 	-0.00280263
0.03135 	1.00006 	0.0332859 	0 	-0.00285284
0.0319 	1.00006 	0.0332823 	0 	-0.00290304
0.03245 	1.00006 	0.0332787 	0 	-0.00295325
0.033 	1.00006 	0.0332751 	0 	-0.00300346
0.03355 	1.00006 	0.0332715 	0 	-0.00305366
0.0341 	1.00006 	0.033268 	0 	-0.00310387
0.03465 	1.00006 	0.0332644 	0 	-0.00315407
0.0352 	1.00006 	0.0332608 	0 	-0.00320428
0.03575 	1.00006 	0.0332572 	0 	-0.00325449
0.0363 	1.00006 	0.0332536 	0 	-0.00330469
0.03685 	1.00006 	0.0332501 	0 	-0.0033549
0.0374 	1.00006 	0.0332465 	0 	-0.00340511
0.03795 	1.00006 	0.0332429 	0 	-0.00345531
0.0385 	1.00006 	0.0332393 	0 	-0.00350552
0.03905 	1.00006 	0.0332357 	0 	-0.00355572
0.0396 	1.00006 	0.0332322 	0 	-0.00360593
0.04015 	1.00006 	0.033228 	0 	-0.00365612
0.0407 	1.00006 	0.0332223 	0 	-0.00370628
0.04125 	1.00006 	0.0332166 	0 	-0.00375644
0.0418 	1.00006 	0.033211 	0 	-0.00380659
0.04235 	1.00006 	0.0332053 	0 	-0.00385675
0.0429 	1.00006 	0.0331996 	0 	-0.0039069
0.04345 	1.00006 	0.0331939 	0 	-0.00395706
0.044 	1.00006 	0.0331882 	0 	-0.00400722
0.04455 	1.00006 	0.0331826 	0 	-0.00405737
0.0451 	1.00006 	0.0331769 	0 	-0.00410753
0.04565 	1.00006 	0.0331712 	0 	-0.00415769
0.0462 	1.00006 	0.0331655 	0 	-0.00420784
0.04675 	1.00006 	0.0331598 	0 	-0.004258
0.0473 	1.00006 	0.0331542 	0 	-0.00430816
0.04785 	1.00006 	0.0331485 	0 	-0.00435831
0.0484 	1.00006 	0.0331428 	0 	-0.00440847
0.04895 	1.00006 	0.0331371 	0 	-0.00445862
0.0495 	1.00006 	0.0331314 	0 	-0.00450878
0.05005 	1.00006 	0.0331258 	0 	-0.00455894
0.0506 	1.00006 	0.0331201 	0 	-0.00460911
0.05115 	1.00006 	0.0331145 	0 	-0.00465929
0.0517 	1.00006 	0.0331089 	0 	-0.00470946
0.05225 	1.00006 	0.0331033 	0 	-0.00475964
0.0528 	1.00006 	0.0330977 	0 	-0.00480981
0.05335 	1.00006 	0.0330921 	0 	-0.00485999
0.0539 	1.00006 	0.0330865 	0 	-0.00491016
0.05445 	1.00006 	0.0330809 	0 	-0.00496033
0.055 	1.00006 	0.0330752 	0 	-0.00501051
0.05555 	1.00006 	0.0330696 	0 	-0.00506068
0.0561 	1.00005 	0.033064 	0 	-0.00511086
0.05665 	1.00005 	0.0330584 	0 	-0.00516103
0.0572 	1.00005 	0.0330528 	0 	-0.00521121
0.05775 	1.00005 	0.0330472 	0 	-0.00526138
0.0583 	1.00005 	0.0330416 	0 	-0.00531156
0.05885 	1.00005 	0.033036 	0 	-0.00536173
0.0594 	1.00005 	0.0330303 	0 	-0.00541191
0.05995 	1.00005 	0.0330247 	0 	-0.00546208
0.0605 	1.00005 	0.0330198 	0 	-0.0055123
0.06105 	1.00005 	0.033015 	0 	-0.00556252
0.0616 	1.00005 	0.0330102 	0 	-0.00561274
0.06215 	1.00005 	0.0330053 	0 	-0.00566296
0.0627 	1.00005 	0.0330005 	0 	-0.00571318
0.06325 	1.00005 	0.0329957 	0 	-0.0057634
0.0638 	1.00005 	0.0329908 	0 	-0.00581362
0.06435 	1.00005 	0.032986 	0 	-0.00586384
0.0649 	1.00005 	0.0329812 	0 	-0.00591406
0.06545 	1.00005 	0.0329763 	0 	-0.00596428
0.066 	1.00005 	0.0329715 	0 	-0.0060145
0.06655 	1.00005 	0.0329667 	0 	-0.00606472
0.0671 	1.00005 	0.0329618 	0 	-0.00611495
0.06765 	1.00005 	0.032957 	0 	-0.00616517
0.0682 	1.00005 	0.0329522 	0 	-0.00621539
0.06875 	1.00005 	0.0329473 	0 	-0.00626561
0.0693 	1.00005 	0.0329425 	0 	-0.00631583
0.06985 	1.00005 	0.0329377 	0 	-0.00636605
0.0704 	1.00005 	0.0329333 	0 	-0.00641632
0.07095 	1.00005 	0.0329292 	0 	-0.0064666
0.0715 	1.00005 	0.032925 	0 	-0.00651689
0.07205 	1.00005 	0.0329209 	0 	-0.00656717
0.0726 	1.00005 	0.0329168 	0 	-0.00661745
0.07315 	1.00005 	0.0329126 	0 	-0.00666774
0.0737 	1.00005 	0.0329085 	0 	-0.00671802
0.07425 	1.00005 	0.0329043 	0 	-0.00676831
0.0748 	1.00005 	0.0329002 	0 	-0.00681859
0.07535 	1.00005 	0.032896 	0 	-0.00686888
0.0759 	1.00005 	0.0328919 	0 	-0.00691916
0.07645 	1.00005 	0.0328877 	0 	-0.00696945
0.077 	1.00005 	0.0328836 	0 	-0.00701973
0.07755 	1.00005 	0.0328795 	0 	-0.00707002
0.0781 	1.00005 	0.0328753 	0 	-0.0071203
0.07865 	1.00005 	0.0328712 	0 	-0.00717059
0.0792 	1.00005 	0.032867 	0 	-0.00722087
0.07975 	1.00005 	0.0328629 	0 	-0.00727116
0.0803 	1.00005 	0.032859 	0 	-0.0073215
0.08085 	1.00005 	0.0328555 	0 	-0.00737189
0.0814 	1.00005 	0.0328519 	0 	-0.00742229
0.08195 	1.00005 	0.0328483 	0 	-0.00747268
0.0825 	1.00005 	0.0328447 	0 	-0.00752307
0.08305 	1.00005 	0.0328411 	0 	-0.00757347
0.0836 	1.00005 	0.0328375 	0 	-0.00762386
0.08415 	1.00005 	0.0328339 	0 	-0.00767425
0.0847 	1.00005 	0.0328303 	0 	-0.00772465
0.08525 	1.00005 	0.0328267 	0 	-0.00777504
0.0858 	1.00005 	0.0328232 	0 	-0.00782544
0.08635 	1.00005 	0.0328196 	0 	-0.00787583
0.0869 	1.00005 	0.032816 	0 	-0.00792622
0.08745 	1.00005 	0.0328124 	0 	-0.00797662
0.088 	1.00005 	0.0328088 	0 	-0.00802701
0.08855 	1.00005 	0.0328052 	0 	-0.0080774
0.0891 	1.00005 	0.0328016 	0 	-0.0081278
0.08965 	1.00005 	0.032798 	0 	-0.00817819
0.0902 	1.00005 	0.0327946 	0 	-0.00822863
0.09075 	1.00005 	0.0327916 	0 	-0.00827916
0.0913 	1.00005 	0.0327885 	0 	-0.00832969
0.09185 	1.00005 	0.0327854 	0 	-0.00838021
0.0924 	1.00005 	0.0327824 	0 	-0.00843074
0.09295 	1.00005 	0.0327793 	0 	-0.00848126
0.0935 	1.00005 	0.0327762 	0 	-0.00853179
0.09405 	1.00005 	0.0327732 	0 	-0.00858232
0.0946 	1.00005 	0.0327701 	0 	-0.00863284
0.09515 	1.00005 	0.032767 	0 	-0.00868337
0.0957 	1.00005 	0.0327639 	0 	-0.0087339
0.09625 	1.00005 	0.0327609 	0 	-0.00878442
0.0968 	1.00005 	0.0327578 	0 	-0.00883495
0.09735 	1.00005 	0.0327547 	0 	-0.00888548
0.0979 	1.00005 	0.0327517 	0 	-0.008936
0.09845 	1.00005 	0.0327486 	0 	-0.00898653
0.099 	1.00005 	0.0327455 	0 	-0.00903705
0.09955 	1.00005 	0.0327425 	0 	-0.00908758
0.1001 	1.00005 	0.0327395 	0 	-0.00913813
0.10065 	1.00005 	0.0327369 	0 	-0.00918879
0.1012 	1.00005 	0.0327344 	0 	-0.00923944
0.10175 	1.00005 	0.0327319 	0 	-0.0092901
0.1023 	1.00005 	0.0327293 	0 	-0.00934075
0.10285 	1.00005 	0.0327268 	0 	-0.00939141
0.1034 	1.00005 	0.0327242 	0 	-0.00944206
0.10395 	1.00005 	0.0327217 	0 	-0.00949272
0.1045 	1.00005 	0.0327192 	0 	-0.00954337
0.10505 	1.00005 	0.0327166 	0 	-0.00959403
0.1056 	1.00005 	0.0327141 	0 	-0.00964468
0.10615 	1.00005 	0.0327115 	0 	-0.00969534
0.1067 	1.00005 	0.032709 	0 	-0.00974599
0.10725 	1.00005 	0.0327064 	0 	-0.00979665
0.1078 	1.00005 	0.0327039 	0 	-0.0098473
0.10835 	1.00005 	0.0327014 	0 	-0.00989795
0.1089 	1.00005 	0.0326988 	0 	-0.00994861
0.10945 	1.00005 	0.0326963 	0 	-0.00999926
0.11 	1.00005 	0.0326937 	0 	-0.0100499
0.11055 	1.00005 	0.0326917 	0 	-0.0101007
0.1111 	1.00005 	0.0326897 	0 	-0.0101515
0.11165 	1.00005 	0.0326877 	0 	-0.0102023
0.1122 	1.00005 	0.0326857 	0 	-0.0102531
0.11275 	1.00005 	0.0326837 	0 	-0.0103039
0.1133 	1.00005 	0.0326817 	0 	-0.0103547
0.11385 	1.00005 	0.0326797 	0 	-0.0104055
0.1144 	1.00005 	0.0326777 	0 	-0.0104563
0.11495 	1.00005 	0.0326757 	0 	-0.0105071
0.1155 	1.00005 	0.0326737 	0 	-0.0105579
0.11605 	1.00005 	0.0326717 	0 	-0.0106087
0.1166 	1.00005 	0.0326697 	0 	-0.0106595
0.11715 	1.00005 	0.0326677 	0 	-0.0107103
0.1177 	1.00005 	0.0326657 	0 	-0.0107611
0.11825 	1.00005 	0.0326637 	0 	-0.0108119
0.1188 	1.00005 	0.0326617 	0 	-0.0108627
0.11935 	1.00005 	0.0326597 	0 	-0.0109135
0.1199 	1.00005 	0.0326577 	0 	-0.0109643
0.12045 	1.00005 	0.0326562 	0 	-0.0110152
0.121 	1.00005 	0.0326547 	0 	-0.0110662
0.12155 	1.00005 	0.0326532 	0 	-0.0111172
0.1221 	1.00005 	0.0326518 	0 	-0.0111681
0.12265 	1.00005 	0.0326503 	0 	-0.0112191
0.1232 	1.00005 	0.0326489 	0 	-0.0112701
0.12375 	1.00005 	0.0326474 	0 	-0.0113211
0.1243 	1.00005 	0.032646 	0 	-0.011372
0.12485 	1.00005 	0.0326445 	0 	-0.011423
0.1254 	1.00005 	0.0326431 	0 	-0.011474
0.12595 	1.00005 	0.0326416 	0 	-0.011525
0.1265 	1.00005 	0.0326402 	0 	-0.0115759
0.12705 	1.00005 	0.0326387 	0 	-0.0116269
0.1276 	1.00005 	0.0326372 	0 	-0.0116779
0.12815 	1.00005 	0.0326358 	0 	-0.0117288
0.1287 	1.00005 	0.0326343 	0 	-0.0117798
0.12925 	1.00005 	0.0326329 	0 	-0.0118308
0.1298 	1.00005 	0.0326314 	0 	-0.0118818
0.13035 	1.00005 	0.0326303 	0 	-0.0119329
0.1309 	1.00005 	0.0326294 	0 	-0.0119841
0.13145 	1.00005 	0.0326285 	0 	-0.0120353
0.132 	1.00005 	0.0326276 	0 	-0.0120864
0.13255 	1.00005 	0.0326267 	0 	-0.0121376
0.1331 	1.00005 	0.0326258 	0 	-0.0121888
0.13365 	1.00005 	0.0326248 	0 	-0.01224
0.1342 	1.00005 	0.0326239 	0 	-0.0122912
0.13475 	1.00005 	0.032623 	0 	-0.0123424
0.1353 	1.00005 	0.0326221 	0 	-0.0123936
0.13585 	1.00005 	0.0326212 	0 	-0.0124447
0.1364 	1.00005 	0.0326203 	0 	-0.0124959
0.13695 	1.00005 	0.0326194 	0 	-0.0125471
0.1375 	1.00005 	0.0326184 	0 	-0.0125983
0.13805 	1.00005 	0.0326175 	0 	-0.0126495
0.1386 	1.00005 	0.0326166 	0 	-0.0127007
0.13915 	1.00005 	0.0326157 	0 	-0.0127519
0.1397 	1.00005 	0.0326148 	0 	-0.0128031
0.14025 	1.00005 	0.0326141 	0 	-0.0128544
0.1408 	1.00005 	0.0326137 	0 	-0.0129058
0.14135 	1.00005 	0.0326134 	0 	-0.0129572
0.1419 	1.00005 	0.032613 	0 	-0.0130087
0.14245 	1.00005 	0.0326126 	0 	-0.0130601
0.143 	1.00005 	0.0326122 	0 	-0.0131115
0.14355 	1.00005 	0.0326119 	0 	-0.0131629
0.1441 	1.00005 	0.0326115 	0 	-0.0132144
0.14465 	1.00005 	0.0326111 	0 	-0.0132658
0.1452 	1.00005 	0.0326107 	0 	-0.0133172
0.14575 	1.00005 	0.0326104 	0 	-0.0133687
0.1463 	1.00005 	0.03261 	0 	-0.0134201
0.14685 	1.00005 	0.0326096 	0 	-0.0134715
0.1474 	1.00005 	0.0326092 	0 	-0.013523
0.14795 	1.00005 	0.0326089 	0 	-0.0135744
0.1485 	1.00005 	0.0326085 	0 	-0.0136258
0.14905 	1.00005 	0.0326081 	0 	-0.0136773
0.1496 	1.00005 	0.0326077 	0 	-0.0137287
0.15015 	1.00005 	0.0326075 	0 	-0.0137802
0.1507 	1.00005 	0.0326077 	0 	-0.0138319
0.15125 	1.00005 	0.0326078 	0 	-0.0138836
0.1518 	1.00005 	0.032608 	0 	-0.0139353
0.15235 	1.00005 	0.0326082 	0 	-0.013987
0.1529 	1.00005 	0.0326083 	0 	-0.0140387
0.15345 	1.00005 	0.0326085 	0 	-0.0140904
0.154 	1.00005 	0.0326086 	0 	-0.014142
0.15455 	1.00005 	0.0326088 	0 	-0.0141937
0.1551 	1.00005 	0.032609 	0 	-0.0142454
0.15565 	1.00005 	0.0326091 	0 	-0.0142971
0.1562 	1.00005 	0.0326093 	0 	-0.0143488
0.15675 	1.00005 	0.0326094 	0 	-0.0144005
0.1573 	1.00005 	0.0326096 	0 	-0.0144522
0.15785 	1.00005 	0.0326098 	0 	-0.0145039
0.1584 	1.00005 	0.0326099 	0 	-0.0145556
0.15895 	1.00005 	0.0326101 	0 	-0.0146073
0.1595 	1.00005 	0.0326103 	0 	-0.0146589
0.16005 	1.00005 	0.0326105 	0 	-0.0147107
0.1606 	1.00005 	0.0326112 	0 	-0.0147626
0.16115 	1.00004 	0.0326119 	0 	-0.0148146
0.1617 	1.00004 	0.0326126 	0 	-0.0148666
0.16225 	1.00004 	0.0326133 	0 	-0.0149185
0.1628 	1.00004 	0.032614 	0 	-0.0149705
0.16335 	1.00004 	0.0326147 	0 	-0.0150225
0.1639 	1.00004 	0.0326154 	0 	-0.0150744
0.16445 	1.00004 	0.0326161 	0 	-0.0151264
0.165 	1.00004 	0.0326167 	0 	-0.0151784
0.16555 	1.00004 	0.0326174 	0 	-0.0152304
0.1661 	1.00004 	0.0326181 	0 	-0.0152823
0.16665 	1.00004 	0.0326188 	0 	-0.0153343
0.1672 	1.00004 	0.0326195 	0 	-0.0153863
0.16775 	1.00004 	0.0326202 	0 	-0.0154382
0.1683 	1.00004 	0.0326209 	0 	-0.0154902
0.16885 	1.00004 	0.0326216 	0 	-0.0155422
0.1694 	1.00004 	0.0326223 	0 	-0.0155941
0.16995 	1.00004 	0.032623 	0 	-0.0156461
0.1705 	1.00004 	0.0326242 	0 	-0.0156984
0.17105 	1.00004 	0.0326255 	0 	-0.0157506
0.1716 	1.00004 	0.0326267 	0 	-0.0158029
0.17215 	1.00004 	0.0326279 	0 	-0.0158552
0.1727 	1.00004 	0.0326292 	0 	-0.0159075
0.17325 	1.00004 	0.0326304 	0 	-0.0159598
0.1738 	1.00004 	0.0326317 	0 	-0.0160121
0.17435 	1.00004 	0.0326329 	0 	-0.0160643
0.1749 	1.00004 	0.0326342 	0 	-0.0161166
0.17545 	1.00004 	0.0326354 	0 	-0.0161689
0.176 	1.00004 	0.0326366 	0 	-0.0162212
0.17655 	1.00004 	0.0326379 	0 	-0.0162735
0.1771 	1.00004 	0.0326391 	0 	-0.0163257
0.17765 	1.00004 	0.0326404 	0 	-0.016378
0.1782 	1.00004 	0.0326416 	0 	-0.0164303
0.17875 	1.00004 	0.0326428 	0 	-0.0164826
0.1793 	1.00004 	0.0326441 	0 	-0.0165349
0.17985 	1.00004 	0.0326453 	0 	-0.0165872
0.1804 	1.00004 	0.032647 	0 	-0.0166397
0.18095 	1.00004 	0.0326488 	0 	-0.0166923
0.1815 	1.00004 	0.0326505 	0 	-0.0167449
0.18205 	1.00004 	0.0326523 	0 	-0.0167975
0.1826 	1.00004 	0.0326541 	0 	-0.0168502
0.18315 	1.00004 	0.0326559 	0 	-0.0169028
0.1837 	1.00004 	0.0326577 	0 	-0.0169554
0.18425 	1.00004 	0.0326595 	0 	-0.017008
0.1848 	1.00004 	0.0326613 	0 	-0.0170607
0.18535 	1.00004 	0.0326631 	0 	-0.0171133
0.1859 	1.00004 	0.0326649 	0 	-0.0171659
0.18645 	1.00004 	0.0326667 	0 	-0.0172185
0.187 	1.00004 	0.0326685 	0 	-0.0172711
0.18755 	1.00004 	0.0326703 	0 	-0.0173238
0.1881 	1.00004 	0.032672 	0 	-0.0173764
0.18865 	1.00004 	0.0326738 	0 	-0.017429
0.1892 	1.00004 	0.0326756 	0 	-0.0174816
0.18975 	1.00004 	0.0326774 	0 	-0.0175342
0.1903 	1.00004 	0.0326795 	0 	-0.0175871
0.19085 	1.00004 	0.0326819 	0 	-0.0176401
0.1914 	1.00004 	0.0326842 	0 	-0.0176931
0.19195 	1.00004 	0.0326866 	0 	-0.017746
0.1925 	1.00004 	0.0326889 	0 	-0.017799
0.19305 	1.00004 	0.0326912 	0 	-0.017852
0.1936 	1.00004 	0.0326936 	0 	-0.017905
0.19415 	1.00004 	0.0326959 	0 	-0.017958
0.1947 	1.00004 	0.0326983 	0 	-0.018011
0.19525 	1.00004 	0.0327006 	0 	-0.018064
0.1958 	1.00004 	0.032703 	0 	-0.018117
0.19635 	1.00004 	0.0327053 	0 	-0.01817
0.1969 	1.00004 	0.0327077 	0 	-0.018223
0.19745 	1.00004 	0.03271 	0 	-0.018276
0.198 	1.00004 	0.0327124 	0 	-0.018329
0.19855 	1.00004 	0.0327147 	0 	-0.018382
0.1991 	1.00004 	0.0327171 	0 	-0.018435
0.19965 	1.00004 	0.0327194 	0 	-0.018488
0.2002 	1.00004 	0.032722 	0 	-0.0185411
0.20075 	1.00004 	0.0327249 	0 	-0.0185945
0.2013 	1.00004 	0.0327278 	0 	-0.0186479
0.20185 	1.00004 	0.0327307 	0 	-0.0187013
0.2024 	1.00004 	0.0327336 	0 	-0.0187547
0.20295 	1.00004 	0.0327365 	0 	-0.0188081
0.2035 	1.00004 	0.0327394 	0 	-0.0188615
0.20405 	1.00004 	0.0327423 	0 	-0.0189149
0.2046 	1.00004 	0.0327452 	0 	-0.0189683
0.20515 	1.00004 	0.0327481 	0 	-0.0190217
0.2057 	1.00004 	0.032751 	0 	-0.0190751
0.20625 	1.00004 	0.0327539 	0 	-0.0191285
0.2068 	1.00004 	0.0327568 	0 	-0.0191819
0.20735 	1.00004 	0.0327597 	0 	-0.0192353
0.2079 	1.00004 	0.0327626 	0 	-0.0192887
0.20845 	1.00004 	0.0327655 	0 	-0.0193421
0.209 	1.00004 	0.0327684 	0 	-0.0193955
0.20955 	1.00004 	0.0327713 	0 	-0.0194489
0.2101 	1.00004 	0.0327744 	0 	-0.0195023
0.21065 	1.00004 	0.0327778 	0 	-0.0195562
0.2112 	1.00004 	0.0327813 	0 	-0.01961
0.21175 	1.00004 	0.0327848 	0 	-0.0196638
0.2123 	1.00004 	0.0327882 	0 	-0.0197176
0.21285 	1.00004 	0.0327917 	0 	-0.0197714
0.2134 	1.00004 	0.0327952 	0 	-0.0198252
0.21395 	1.00004 	0.0327987 	0 	-0.019879
0.2145 	1.00004 	0.0328021 	0 	-0.0199328
0.21505 	1.00004 	0.0328056 	0 	-0.0199867
0.2156 	1.00004 	0.0328091 	0 	-0.0200405
0.21615 	1.00004 	0.0328125 	0 	-0.0200943
0.2167 	1.00004 	0.032816 	0 	-0.0201481
0.21725 	1.00004 	0.0328195 	0 	-0.0202019
0.2178 	1.00004 	0.032823 	0 	-0.0202557
0.21835 	1.00004 	0.0328264 	0 	-0.0203095
0.2189 	1.00004 	0.0328299 	0 	-0.0203633
0.21945 	1.00004 	0.0328334 	0 	-0.0204172
0.22 	1.00004 	0.0328368 	0 	-0.020471
0.22055 	1.00004 	0.0328409 	0 	-0.0205252
0.2211 	1.00004 	0.0328449 	0 	-0.0205794
0.22165 	1.00004 	0.032849 	0 	-0.0206337
0.2222 	1.00004 	0.032853 	0 	-0.0206879
0.22275 	1.00004 	0.0328571 	0 	-0.0207422
0.2233 	1.00004 	0.0328611 	0 	-0.0207964
0.22385 	1.00004 	0.0328652 	0 	-0.0208506
0.2244 	1.00004 	0.0328692 	0 	-0.0209049
0.22495 	1.00004 	0.0328733 	0 	-0.0209591
0.2255 	1.00004 	0.0328773 	0 	-0.0210134
0.22605 	1.00004 	0.0328814 	0 	-0.0210676
0.2266 	1.00004 	0.0328854 	0 	-0.0211218
0.22715 	1.00004 	0.0328894 	0 	-0.0211761
0.2277 	1.00004 	0.0328935 	0 	-0.0212303
0.22825 	1.00004 	0.0328975 	0 	-0.0212846
0.2288 	1.00004 	0.0329016 	0 	-0.0213388
0.22935 	1.00004 	0.0329056 	0 	-0.021393
0.2299 	1.00004 	0.0329097 	0 	-0.0214473
0.23045 	1.00004 	0.0329142 	0 	-0.0215019
0.231 	1.00004 	0.0329188 	0 	-0.0215566
0.23155 	1.00004 	0.0329235 	0 	-0.0216113
0.2321 	1.00004 	0.0329281 	0 	-0.021666
0.23265 	1.00004 	0.0329327 	0 	-0.0217207
0.2332 	1.00004 	0.0329374 	0 	-0.0217754
0.23375 	1.00004 	0.032942 	0 	-0.0218301
0.2343 	1.00004 	0.0329466 	0 	-0.0218848
0.23485 	1.00004 	0.0329513 	0 	-0.0219395
0.2354 	1.00004 	0.0329559 	0 	-0.0219942
0.23595 	1.00003 	0.0329605 	0 	-0.0220489
0.2365 	1.00003 	0.0329651 	0 	-0.0221036
0.23705 	1.00003 	0.0329698 	0 	-0.0221583
0.2376 	1.00003 	0.0329744 	0 	-0.022213
0.23815 	1.00003 	0.032979 	0 	-0.0222677
0.2387 	1.00003 	0.0329837 	0 	-0.0223224
0.23925 	1.00003 	0.0329883 	0 	-0.0223771
0.2398 	1.00003 	0.0329929 	0 	-0.0224318
0.24035 	1.00003 	0.032998 	0 	-0.0224868
0.2409 	1.00003 	0.0330032 	0 	-0.0225421
0.24145 	1.00003 	0.0330084 	0 	-0.0225973
0.242 	1.00003 	0.0330136 	0 	-0.0226525
0.24255 	1.00003 	0.0330189 	0 	-0.0227077
0.2431 	1.00003 	0.0330241 	0 	-0.0227629
0.24365 	1.00003 	0.0330293 	0 	-0.0228181
0.2442 	1.00003 	0.0330346 	0 	-0.0228734
0.24475 	1.00003 	0.0330398 	0 	-0.0229286
0.2453 	1.00003 	0.033045 	0 	-0.0229838
0.24585 	1.00003 	0.0330503 	0 	-0.023039
0.2464 	1.00003 	0.0330555 	0 	-0.0230942
0.24695 	1.00003 	0.0330607 	0 	-0.0231494
0.2475 	1.00003 	0.033066 	0 	-0.0232047
0.24805 	1.00003 	0.0330712 	0 	-0.0232599
0.2486 	1.00003 	0.0330764 	0 	-0.0233151
0.24915 	1.00003 	0.0330817 	0 	-0.0233703
0.2497 	1.00003 	0.0330869 	0 	-0.0234255
0.25025 	1.00003 	0.0330924 	0 	-0.023481
0.2508 	1.00003 	0.0330983 	0 	-0.0235368
0.25135 	1.00003 	0.0331041 	0 	-0.0235925
0.2519 	1.00003 	0.03311 	0 	-0.0236483
0.25245 	1.00003 	0.0331158 	0 	-0.0237041
0.253 	1.00003 	0.0331217 	0 	-0.0237599
0.25355 	1.00003 	0.0331276 	0 	-0.0238156
0.2541 	1.00003 	0.0331334 	0 	-0.0238714
0.25465 	1.00003 	0.0331393 	0 	-0.0239272
0.2552 	1.00003 	0.0331451 	0 	-0.023983
0.25575 	1.00003 	0.033151 	0 	-0.0240387
0.2563 	1.00003 	0.0331568 	0 	-0.0240945
0.25685 	1.00003 	0.0331627 	0 	-0.0241503
0.2574 	1.00003 	0.0331685 	0 	-0.0242061
0.25795 	1.00003 	0.0331744 	0 	-0.0242618
0.2585 	1.00003 	0.0331803 	0 	-0.0243176
0.25905 	1.00003 	0.0331861 	0 	-0.0243734
0.2596 	1.00003 	0.033192 	0 	-0.0244292
0.26015 	1.00003 	0.033198 	0 	-0.0244851
0.2607 	1.00003 	0.0332045 	0 	-0.0245415
0.26125 	1.00003 	0.033211 	0 	-0.0245978
0.2618 	1.00003 	0.0332175 	0 	-0.0246542
0.26235 	1.00003 	0.033224 	0 	-0.0247105
0.2629 	1.00003 	0.0332305 	0 	-0.0247669
0.26345 	1.00003 	0.033237 	0 	-0.0248232
0.264 	1.00003 	0.0332435 	0 	-0.0248796
0.26455 	1.00003 	0.03325 	0 	-0.024936
0.2651 	1.00003 	0.0332565 	0 	-0.0249923
0.26565 	1.00003 	0.0332631 	0 	-0.0250487
0.2662 	1.00003 	0.0332696 	0 	-0.025105
0.26675 	1.00003 	0.0332761 	0 	-0.0251614
0.2673 	1.00003 	0.0332826 	0 	-0.0252177
0.26785 	1.00003 	0.0332891 	0 	-0.0252741
0.2684 	1.00003 	0.0332956 	0 	-0.0253304
0.26895 	1.00003 	0.0333021 	0 	-0.0253868
0.2695 	1.00003 	0.0333086 	0 	-0.0254432
0.27005 	1.00003 	0.0333152 	0 	-0.0254996
0.2706 	1.00003 	0.0333223 	0 	-0.0255565
0.27115 	1.00003 	0.0333295 	0 	-0.0256135
0.2717 	1.00003 	0.0333367 	0 	-0.0256705
0.27225 	1.00003 	0.0333439 	0 	-0.0257274
0.2728 	1.00003 	0.0333511 	0 	-0.0257844
0.27335 	1.00003 	0.0333583 	0 	-0.0258414
0.2739 	1.00003 	0.0333654 	0 	-0.0258983
0.27445 	1.00003 	0.0333726 	0 	-0.0259553
0.275 	1.00003 	0.0333798 	0 	-0.0260123
0.27555 	1.00003 	0.033387 	0 	-0.0260693
0.2761 	1.00003 	0.0333942 	0 	-0.0261262
0.27665 	1.00003 	0.0334014 	0 	-0.0261832
0.2772 	1.00003 	0.0334085 	0 	-0.0262402
0.27775 	1.00003 	0.0334157 	0 	-0.0262971
0.2783 	1.00003 	0.0334229 	0 	-0.0263541
0.27885 	1.00003 	0.0334301 	0 	-0.0264111
0.2794 	1.00003 	0.0334373 	0 	-0.026468
0.27995 	1.00003 	0.0334445 	0 	-0.026525
0.2805 	1.00003 	0.0334523 	0 	-0.0265826
0.28105 	1.00003 	0.0334602 	0 	-0.0266402
0.2816 	1.00003 	0.0334681 	0 	-0.0266978
0.28215 	1.00003 	0.033476 	0 	-0.0267554
0.2827 	1.00003 	0.0334838 	0 	-0.026813
0.28325 	1.00003 	0.0334917 	0 	-0.0268707
0.2838 	1.00003 	0.0334996 	0 	-0.0269283
0.28435 	1.00003 	0.0335075 	0 	-0.0269859
0.2849 	1.00003 	0.0335154 	0 	-0.0270435
0.28545 	1.00003 	0.0335233 	0 	-0.0271012
0.286 	1.00003 	0.0335312 	0 	-0.0271588
0.28655 	1.00003 	0.0335391 	0 	-0.0272164
0.2871 	1.00003 	0.033547 	0 	-0.027274
0.28765 	1.00003 	0.0335549 	0 	-0.0273316
0.2882 	1.00003 	0.0335628 	0 	-0.0273893
0.28875 	1.00003 	0.0335707 	0 	-0.0274469
0.2893 	1.00003 	0.0335785 	0 	-0.0275045
0.28985 	1.00003 	0.0335864 	0 	-0.0275621
0.2904 	1.00003 	0.0335949 	0 	-0.0276202
0.29095 	1.00003 	0.0336035 	0 	-0.0276786
0.2915 	1.00003 	0.0336121 	0 	-0.0277369
0.29205 	1.00003 	0.0336208 	0 	-0.0277952
0.2926 	1.00003 	0.0336294 	0 	-0.0278535
0.29315 	1.00003 	0.033638 	0 	-0.0279118
0.2937 	1.00003 	0.0336466 	0 	-0.0279701
0.29425 	1.00003 	0.0336553 	0 	-0.0280284
0.2948 	1.00003 	0.0336639 	0 	-0.0280867
0.29535 	1.00003 	0.0336725 	0 	-0.028145
0.2959 	1.00003 	0.0336812 	0 	-0.0282033
0.29645 	1.00003 	0.0336898 	0 	-0.0282616
0.297 	1.00003 	0.0336984 	0 	-0.0283199
0.29755 	1.00003 	0.033707 	0 	-0.0283782
0.2981 	1.00003 	0.0337157 	0 	-0.0284366
0.29865 	1.00003 	0.0337243 	0 	-0.0284949
0.2992 	1.00003 	0.0337329 	0 	-0.0285532
0.29975 	1.00003 	0.0337416 	0 	-0.0286115
0.3003 	1.00003 	0.0337506 	0 	-0.0286702
0.30085 	1.00003 	0.03376 	0 	-0.0287292
0.3014 	1.00003 	0.0337694 	0 	-0.0287882
0.30195 	1.00003 	0.0337788 	0 	-0.0288473
0.3025 	1.00003 	0.0337881 	0 	-0.0289063
0.30305 	1.00003 	0.0337975 	0 	-0.0289653
0.3036 	1.00003 	0.0338069 	0 	-0.0290244
0.30415 	1.00003 	0.0338163 	0 	-0.0290834
0.3047 	1.00003 	0.0338257 	0 	-0.0291424
0.30525 	1.00002 	0.0338351 	0 	-0.0292014
0.3058 	1.00002 	0.0338445 	0 	-0.0292605
0.30635 	1.00002 	0.0338539 	0 	-0.0293195
0.3069 	1.00002 	0.0338632 	0 	-0.0293785
0.30745 	1.00002 	0.0338726 	0 	-0.0294376
0.308 	1.00002 	0.033882 	0 	-0.0294966
0.30855 	1.00002 	0.0338914 	0 	-0.0295556
0.3091 	1.00002 	0.0339008 	0 	-0.0296146
0.30965 	1.00002 	0.0339102 	0 	-0.0296737
0.3102 	1.00002 	0.0339198 	0 	-0.029733
0.31075 	1.00002 	0.03393 	0 	-0.0297928
0.3113 	1.00002 	0.0339401 	0 	-0.0298526
0.31185 	1.00002 	0.0339503 	0 	-0.0299124
0.3124 	1.00002 	0.0339605 	0 	-0.0299722
0.31295 	1.00002 	0.0339706 	0 	-0.0300319
0.3135 	1.00002 	0.0339808 	0 	-0.0300917
0.31405 	1.00002 	0.0339909 	0 	-0.0301515
0.3146 	1.00002 	0.0340011 	0 	-0.0302113
0.31515 	1.00002 	0.0340112 	0 	-0.0302711
0.3157 	1.00002 	0.0340214 	0 	-0.0303309
0.31625 	1.00002 	0.0340315 	0 	-0.0303907
0.3168 	1.00002 	0.0340417 	0 	-0.0304505
0.31735 	1.00002 	0.0340518 	0 	-0.0305103
0.3179 	1.00002 	0.034062 	0 	-0.0305701
0.31845 	1.00002 	0.0340722 	0 	-0.0306299
0.319 	1.00002 	0.0340823 	0 	-0.0306897
0.31955 	1.00002 	0.0340925 	0 	-0.0307494
0.3201 	1.00002 	0.0341028 	0 	-0.0308094
0.32065 	1.00002 	0.0341137 	0 	-0.03087
0.3212 	1.00002 	0.0341246 	0 	-0.0309305
0.32175 	1.00002 	0.0341355 	0 	-0.0309911
0.3223 	1.00002 	0.0341465 	0 	-0.0310517
0.32285 	1.00002 	0.0341574 	0 	-0.0311123
0.3234 	1.00002 	0.0341683 	0 	-0.0311729
0.32395 	1.00002 	0.0341792 	0 	-0.0312334
0.3245 	1.00002 	0.0341902 	0 	-0.031294
0.32505 	1.00002 	0.0342011 	0 	-0.0313546
0.3256 	1.00002 	0.034212 	0 	-0.0314152
0.32615 	1.00002 	0.0342229 	0 	-0.0314758
0.3267 	1.00002 	0.0342339 	0 	-0.0315363
0.32725 	1.00002 	0.0342448 	0 	-0.0315969
0.3278 	1.00002 	0.0342557 	0 	-0.0316575
0.32835 	1.00002 	0.0342666 	0 	-0.0317181
0.3289 	1.00002 	0.0342776 	0 	-0.0317787
0.32945 	1.00002 	0.0342885 	0 	-0.0318392
0.33 	1.00002 	0.0342994 	0 	-0.0318998
0.33055 	1.00002 	0.0343111 	0 	-0.0319612
0.3311 	1.00002 	0.0343228 	0 	-0.0320226
0.33165 	1.00002 	0.0343345 	0 	-0.032084
0.3322 	1.00002 	0.0343461 	0 	-0.0321454
0.33275 	1.00002 	0.0343578 	0 	-0.0322068
0.3333 	1.00002 	0.0343695 	0 	-0.0322682
0.33385 	1.00002 	0.0343812 	0 	-0.0323295
0.3344 	1.00002 	0.0343929 	0 	-0.0323909
0.33495 	1.00002 	0.0344046 	0 	-0.0324523
0.3355 	1.00002 	0.0344163 	0 	-0.0325137
0.33605 	1.00002 	0.0344279 	0 	-0.0325751
0.3366 	1.00002 	0.0344396 	0 	-0.0326365
0.33715 	1.00002 	0.0344513 	0 	-0.0326979
0.3377 	1.00002 	0.034463 	0 	-0.0327593
0.33825 	1.00002 	0.0344747 	0 	-0.0328207
0.3388 	1.00002 	0.0344864 	0 	-0.0328821
0.33935 	1.00002 	0.0344981 	0 	-0.0329434
0.3399 	1.00002 	0.0345097 	0 	-0.0330048
0.34045 	1.00002 	0.034522 	0 	-0.0330669
0.341 	1.00002 	0.0345345 	0 	-0.0331291
0.34155 	1.00002 	0.0345469 	0 	-0.0331914
0.3421 	1.00002 	0.0345593 	0 	-0.0332536
0.34265 	1.00002 	0.0345717 	0 	-0.0333158
0.3432 	1.00002 	0.0345842 	0 	-0.033378
0.34375 	1.00002 	0.0345966 	0 	-0.0334403
0.3443 	1.00002 	0.034609 	0 	-0.0335025
0.34485 	1.00002 	0.0346215 	0 	-0.0335647
0.3454 	1.00002 	0.0346339 	0 	-0.0336269
0.34595 	1.00002 	0.0346463 	0 	-0.0336891
0.3465 	1.00002 	0.0346587 	0 	-0.0337514
0.34705 	1.00002 	0.0346712 	0 	-0.0338136
0.3476 	1.00002 	0.0346836 	0 	-0.0338758
0.34815 	1.00002 	0.034696 	0 	-0.033938
0.3487 	1.00002 	0.0347085 	0 	-0.0340003
0.34925 	1.00002 	0.0347209 	0 	-0.0340625
0.3498 	1.00002 	0.0347333 	0 	-0.0341247
0.35035 	1.00002 	0.0347462 	0 	-0.0341875
0.3509 	1.00002 	0.0347594 	0 	-0.0342506
0.35145 	1.00002 	0.0347725 	0 	-0.0343136
0.352 	1.00002 	0.0347857 	0 	-0.0343767
0.35255 	1.00002 	0.0347988 	0 	-0.0344398
0.3531 	1.00002 	0.034812 	0 	-0.0345029
0.35365 	1.00002 	0.0348252 	0 	-0.034566
0.3542 	1.00002 	0.0348383 	0 	-0.034629
0.35475 	1.00002 	0.0348515 	0 	-0.0346921
0.3553 	1.00002 	0.0348647 	0 	-0.0347552
0.35585 	1.00002 	0.0348778 	0 	-0.0348183
0.3564 	1.00002 	0.034891 	0 	-0.0348814
0.35695 	1.00002 	0.0349041 	0 	-0.0349444
0.3575 	1.00002 	0.0349173 	0 	-0.0350075
0.35805 	1.00002 	0.0349305 	0 	-0.0350706
0.3586 	1.00002 	0.0349436 	0 	-0.0351337
0.35915 	1.00002 	0.0349568 	0 	-0.0351967
0.3597 	1.00002 	0.0349699 	0 	-0.0352598
0.36025 	1.00002 	0.0349834 	0 	-0.0353233
0.3608 	1.00002 	0.0349974 	0 	-0.0353872
0.36135 	1.00002 	0.0350113 	0 	-0.0354512
0.3619 	1.00002 	0.0350252 	0 	-0.0355151
0.36245 	1.00002 	0.0350391 	0 	-0.0355791
0.363 	1.00002 	0.035053 	0 	-0.035643
0.36355 	1.00002 	0.0350669 	0 	-0.035707
0.3641 	1.00002 	0.0350808 	0 	-0.0357709
0.36465 	1.00002 	0.0350947 	0 	-0.0358349
0.3652 	1.00002 	0.0351086 	0 	-0.0358988
0.36575 	1.00002 	0.0351225 	0 	-0.0359628
0.3663 	1.00002 	0.0351364 	0 	-0.0360267
0.36685 	1.00002 	0.0351503 	0 	-0.0360907
0.3674 	1.00002 	0.0351642 	0 	-0.0361546
0.36795 	1.00002 	0.0351781 	0 	-0.0362186
0.3685 	1.00002 	0.035192 	0 	-0.0362825
0.36905 	1.00002 	0.0352059 	0 	-0.0363464
0.3696 	1.00002 	0.0352199 	0 	-0.0364104
0.37015 	1.00002 	0.035234 	0 	-0.0364746
0.3707 	1.00002 	0.0352486 	0 	-0.0365394
0.37125 	1.00002 	0.0352633 	0 	-0.0366043
0.3718 	1.00002 	0.035278 	0 	-0.0366691
0.37235 	1.00002 	0.0352927 	0 	-0.0367339
0.3729 	1.00002 	0.0353073 	0 	-0.0367988
0.37345 	1.00002 	0.035322 	0 	-0.0368636
0.374 	1.00002 	0.0353367 	0 	-0.0369284
0.37455 	1.00002 	0.0353513 	0 	-0.0369933
0.3751 	1.00002 	0.035366 	0 	-0.0370581
0.37565 	1.00002 	0.0353807 	0 	-0.037123
0.3762 	1.00002 	0.0353953 	0 	-0.0371878
0.37675 	1.00002 	0.03541 	0 	-0.0372526
0.3773 	1.00002 	0.0354247 	0 	-0.0373175
0.37785 	1.00002 	0.0354394 	0 	-0.0373823
0.3784 	1.00002 	0.035454 	0 	-0.0374471
0.37895 	1.00002 	0.0354687 	0 	-0.037512
0.3795 	1.00002 	0.0354834 	0 	-0.0375768
0.38005 	1.00002 	0.0354981 	0 	-0.0376417
0.3806 	1.00002 	0.0355135 	0 	-0.0377075
0.38115 	1.00002 	0.0355289 	0 	-0.0377733
0.3817 	1.00002 	0.0355443 	0 	-0.037839
0.38225 	1.00002 	0.0355597 	0 	-0.0379048
0.3828 	1.00002 	0.0355751 	0 	-0.0379706
0.38335 	1.00002 	0.0355905 	0 	-0.0380364
0.3839 	1.00002 	0.0356059 	0 	-0.0381021
0.38445 	1.00002 	0.0356213 	0 	-0.0381679
0.385 	1.00002 	0.0356367 	0 	-0.0382337
0.38555 	1.00002 	0.0356521 	0 	-0.0382994
0.3861 	1.00002 	0.0356675 	0 	-0.0383652
0.38665 	1.00002 	0.0356829 	0 	-0.038431
0.3872 	1.00002 	0.0356983 	0 	-0.0384968