scalar
part
         1
quad4
 6.41331e-07
 5.87421e-07
 5.35083e-07
 4.85965e-07
 4.40851e-07
 3.99978e-07
 3.63262e-07
 3.30446e-07
 3.01193e-07
 2.75141e-07
 2.51938e-07
 2.31251e-07
 2.12780e-07
 1.96256e-07
 1.81444e-07
 1.68135e-07
 1.56148e-07
 1.45327e-07
 1.35534e-07
 1.26652e-07
 7.54963e-07
 6.78367e-07
 6.07578e-07
 5.43742e-07
 4.87006e-07
 4.36997e-07
 3.93102e-07
 3.54635e-07
 3.20917e-07
 2.91321e-07
 2.65289e-07
 2.42332e-07
 2.22028e-07
 2.04017e-07
 1.87990e-07
 1.73683e-07
 1.60874e-07
 1.49369e-07
 1.39007e-07
 1.29647e-07
 8.88195e-07
 7.81077e-07
 6.86826e-07
 6.05144e-07
 5.34877e-07
 4.74590e-07
 4.22855e-07
 3.78369e-07
 3.39998e-07
 3.06779e-07
 2.77902e-07
 2.52696e-07
 2.30600e-07
 2.11151e-07
 1.93961e-07
 1.78709e-07
 1.65126e-07
 1.52985e-07
 1.42095e-07
 1.32296e-07
 1.04067e-06
 8.93806e-07
 7.70783e-07
 6.68281e-07
 5.82868e-07
 5.11472e-07
 4.51505e-07
 4.00856e-07
 3.57822e-07
 3.21036e-07
 2.89405e-07
 2.62051e-07
 2.38266e-07
 2.17476e-07
 1.99214e-07
 1.83098e-07
 1.68813e-07
 1.56099e-07
 1.44738e-07
 1.34548e-07
 1.20853e-06
 1.01236e-06
 8.55835e-07
 7.30293e-07
 6.28802e-07
 5.46007e-07
 4.77834e-07
 4.21186e-07
 3.73705e-07
 3.33578e-07
 2.99408e-07
 2.70100e-07
 2.44796e-07
 2.22815e-07
 2.03609e-07
 1.86739e-07
 1.71848e-07
 1.58641e-07
 1.46879e-07
 1.36360e-07
 1.38240e-06
 1.12937e-06
 9.36598e-07
 7.87360e-07
 6.69987e-07
 5.76297e-07
 5.00489e-07
 4.38388e-07
 3.86942e-07
 3.43888e-07
 3.07525e-07
 2.76553e-07
 2.49972e-07
 2.26999e-07
 2.07016e-07
 1.89532e-07
 1.74150e-07
 1.60550e-07
 1.48469e-07
 1.37690e-07
 1.54596e-06
 1.23412e-06
 1.00615e-06
 8.34971e-07
 7.03443e-07
 6.00339e-07
 5.18103e-07
 4.51510e-07
 3.96861e-07
 3.51484e-07
 3.13406e-07
 2.81153e-07
 2.53601e-07
 2.29883e-07
 2.09325e-07
 1.91390e-07
 1.75654e-07
 1.61772e-07
 1.49466e-07
 1.38506e-07
 1.67677e-06
 1.31377e-06
 1.05690e-06
 8.68519e-07
 7.26283e-07
 6.16273e-07
 5.29446e-07
 4.59721e-07
 4.02890e-07
 3.55961e-07
 3.16763e-07
 2.83689e-07
 2.55528e-07
 2.31353e-07
 2.10449e-07
 1.92250e-07
 1.76310e-07
 1.62270e-07
 1.49840e-07
 1.38784e-07
 1.75116e-06
 1.35608e-06
 1.08217e-06
 8.84152e-07
 7.36197e-07
 6.22661e-07
 5.33595e-07
 4.62413e-07
 4.04616e-07
 3.57037e-07
 3.17398e-07
 2.84021e-07
 2.55652e-07
 2.31334e-07
 2.10332e-07
 1.92068e-07
 1.76085e-07
 1.62018e-07
 1.49574e-07
 1.38510e-07
 1.75259e-06
 1.35319e-06
 1.07791e-06
 8.79651e-07
 7.31906e-07
 6.18738e-07
 5.30076e-07
 4.59286e-07
 4.01845e-07
 3.54584e-07
 3.15223e-07
 2.82089e-07
 2.53931e-07
 2.29798e-07
 2.08956e-07
 1.90831e-07
 1.74970e-07
 1.61011e-07
 1.48660e-07
 1.37680e-07
 1.67910e-06
 1.30446e-06
 1.04392e-06
 8.54999e-07
 7.13451e-07
 6.04562e-07
 5.18950e-07
 4.50392e-07
 3.94624e-07
 3.48641e-07
 3.10272e-07
 2.77922e-07
 2.50390e-07
 2.26763e-07
 2.06336e-07
 1.88553e-07
 1.72978e-07
 1.59258e-07
 1.47110e-07
 1.36302e-07
 1.54405e-06
 1.21670e-06
 9.83970e-07
 8.12401e-07
 6.82199e-07
 5.81016e-07
 5.00806e-07
 4.36140e-07
 3.83241e-07
 3.39416e-07
 3.02700e-07
 2.71634e-07
 2.45116e-07
 2.22299e-07
 2.02526e-07
 1.85277e-07
 1.70141e-07
 1.56786e-07
 1.44944e-07
 1.34394e-07
 1.36987e-06
 1.10163e-06
 9.04635e-07
 7.55759e-07
 6.40567e-07
 5.49655e-07
 4.76681e-07
 4.17238e-07
 3.68193e-07
 3.27265e-07
 2.92766e-07
 2.63421e-07
 2.38257e-07
 2.16518e-07
 1.97612e-07
 1.81070e-07
 1.66514e-07
 1.53639e-07
 1.42197e-07
 1.31984e-07
 1.17991e-06
 9.72416e-07
 8.13660e-07
 6.89822e-07
 5.91576e-07
 5.12464e-07
 4.47910e-07
 3.94610e-07
 3.50133e-07
 3.12660e-07
 2.80815e-07
 2.53538e-07
 2.30005e-07
 2.09568e-07
 1.91711e-07
 1.76023e-07
 1.62168e-07
 1.49874e-07
 1.38917e-07
 1.29110e-07
 9.93054e-07
 8.40720e-07
 7.18412e-07
 6.19349e-07
 5.38371e-07
 4.71566e-07
 4.15962e-07
 3.69290e-07
 3.29801e-07
 2.96141e-07
 2.67248e-07
 2.42286e-07
 2.20590e-07
 2.01624e-07
 1.84959e-07
 1.70244e-07
 1.57190e-07
 1.45560e-07
 1.35157e-07
 1.25817e-07
 8.21712e-07
 7.15233e-07
 6.24877e-07
 5.48467e-07
 4.83821e-07
 4.28980e-07
 3.82276e-07
 3.42316e-07
 3.07960e-07
 2.78272e-07
 2.52489e-07
 2.29988e-07
 2.10259e-07
 1.92881e-07
 1.77508e-07
 1.63852e-07
 1.51674e-07
 1.40773e-07
 1.30981e-07
 1.22157e-07
 6.72183e-07
 6.01334e-07
 5.37252e-07
 4.80336e-07
 4.30272e-07
 3.86445e-07
 3.48141e-07
 3.14654e-07
 2.85334e-07
 2.59603e-07
 2.36958e-07
 2.16969e-07
 1.99266e-07
 1.83536e-07
 1.69514e-07
 1.56973e-07
 1.45721e-07
 1.35595e-07
 1.26456e-07
 1.18183e-07
 5.46122e-07
 5.01538e-07
 4.58004e-07
 4.17074e-07
 3.79446e-07
 3.45320e-07
 3.14619e-07
 2.87127e-07
 2.62565e-07
 2.40635e-07
 2.21049e-07
 2.03538e-07
 1.87855e-07
 1.73785e-07
 1.61134e-07
 1.49733e-07
 1.39435e-07
 1.30111e-07
 1.21649e-07
 1.13953e-07
 4.42295e-07
 4.16282e-07
 3.88181e-07
 3.59863e-07
 3.32451e-07
 3.06570e-07
 2.82519e-07
 2.60399e-07
 2.40190e-07
 2.21801e-07
 2.05109e-07
 1.89974e-07
 1.76254e-07
 1.63811e-07
 1.52518e-07
 1.42254e-07
 1.32915e-07
 1.24402e-07
 1.16631e-07
 1.09523e-07
 3.58039e-07
 3.44710e-07
 3.27827e-07
 3.09149e-07
 2.89876e-07
 2.70796e-07
 2.52395e-07
 2.34957e-07
 2.18626e-07
 2.03452e-07
 1.89432e-07
 1.76523e-07
 1.64663e-07
 1.53782e-07
 1.43803e-07
 1.34652e-07
 1.26256e-07
 1.18549e-07
 1.11466e-07
 1.04950e-07
