# vtk DataFile Version 2.0
gauge_2
ASCII
DATASET POLYDATA
POINTS 68 double
0.2 0.0314993 0.005
0.2 0.0329993 0.005
0.2 0.0344993 0.005
0.2 0.0359992 0.005
0.2 0.0374992 0.005
0.2 0.0389992 0.005
0.2 0.0404991 0.005
0.2 0.0419991 0.005
0.2 0.0434991 0.005
0.2 0.044999 0.005
0.2 0.046499 0.005
0.2 0.047999 0.005
0.2 0.0511894 0.005
0.2 0.0543799 0.005
0.2 0.0575704 0.005
0.2 0.0607609 0.005
0.2 0.0639514 0.005
0.2 0.0671419 0.005
0.2 0.0703323 0.005
0.2 0.0735228 0.005
0.2 0.0767133 0.005
0.2 0.0799038 0.005
0.2 0.0830943 0.005
0.2 0.0862847 0.005
0.2 0.0894752 0.005
0.2 0.0926657 0.005
0.2 0.0958562 0.005
0.2 0.0990467 0.005
0.2 0.102237 0.005
0.2 0.105428 0.005
0.2 0.108618 0.005
0.2 0.111809 0.005
0.2 0.11819 0.005
0.2 0.124571 0.005
0.2 0.137332 0.005
0.2 0.150094 0.005
0.2 0.162856 0.005
0.2 0.175618 0.005
0.2 0.18838 0.005
0.2 0.201142 0.005
0.2 0.213904 0.005
0.2 0.226666 0.005
0.2 0.239428 0.005
0.2 0.25219 0.005
0.2 0.264952 0.005
0.2 0.277714 0.005
0.2 0.290476 0.005
0.2 0.303238 0.005
0.2 0.315999 0.005
0.2 0.328761 0.005
0.2 0.341523 0.005
0.2 0.354285 0.005
0.2 0.367047 0.005
0.2 0.379809 0.005
0.2 0.392571 0.005
0.2 0.405333 0.005
0.2 0.418095 0.005
0.2 0.430857 0.005
0.2 0.443619 0.005
0.2 0.456381 0.005
0.2 0.469143 0.005
0.2 0.481905 0.005
0.2 0.494666 0.005
0.2 0.507428 0.005
0.2 0.52019 0.005
0.2 0.532952 0.005
0.2 0.545714 0.005
0.2 0.558476 0.005
POINT_DATA 68
 FIELD attributes 1
alpha.water 1 68 float
1 1 1 1 1 1 1 1 1 1 1 1 1 1 1 1 1 1 1 1 1 0.999984 0.99993 0.999826 0.999971 0.999466 0.985281 0.871926 0.61494 0.0995072 9.05794e-12 2.21459e-12 2.22226e-12 1.82304e-10 6.73509e-08 2.33808e-07 1.66722e-07 1.96611e-11 1.9682e-11 1.26692e-11 1.95929e-12 3.79062e-13 9.90349e-15 5.96406e-17 -3.43785e-16 -1.9567e-16 1.4307e-17 1.95321e-16 2.9141e-16 2.30453e-16 8.17021e-17 1.91836e-18 1.21384e-18 4.07416e-19 1.43942e-19 7.53465e-19 7.05432e-19 3.33497e-20 -4.88025e-18 -4.98732e-17 -7.61089e-16 -7.00294e-15 -2.89672e-15 3.2895e-13 3.59379e-12 3.27284e-12 4.61697e-15 2.41605e-18
