scalar
part
         1
quad4
 6.54164e-07
 5.97997e-07
 5.43716e-07
 4.92969e-07
 4.46511e-07
 4.04541e-07
 3.66936e-07
 3.33401e-07
 3.03568e-07
 2.77048e-07
 2.53466e-07
 2.32473e-07
 2.13753e-07
 1.97027e-07
 1.82049e-07
 1.68605e-07
 1.56508e-07
 1.45596e-07
 1.35729e-07
 1.26784e-07
 7.69250e-07
 6.89773e-07
 6.16611e-07
 5.50860e-07
 4.92602e-07
 4.41390e-07
 3.96549e-07
 3.57336e-07
 3.23031e-07
 2.92971e-07
 2.66572e-07
 2.43324e-07
 2.22788e-07
 2.04591e-07
 1.88415e-07
 1.73989e-07
 1.61083e-07
 1.49501e-07
 1.39077e-07
 1.29666e-07
 9.03891e-07
 7.93130e-07
 6.96028e-07
 6.12150e-07
 5.40205e-07
 4.78640e-07
 4.25931e-07
 3.80700e-07
 3.41758e-07
 3.08098e-07
 2.78881e-07
 2.53410e-07
 2.31108e-07
 2.11497e-07
 1.94182e-07
 1.78831e-07
 1.65169e-07
 1.52966e-07
 1.42028e-07
 1.32191e-07
 1.05749e-06
 9.06114e-07
 7.79771e-07
 6.74842e-07
 5.87656e-07
 5.14961e-07
 4.54040e-07
 4.02684e-07
 3.59123e-07
 3.21944e-07
 2.90017e-07
 2.62439e-07
 2.38484e-07
 2.17565e-07
 1.99205e-07
 1.83015e-07
 1.68674e-07
 1.55917e-07
 1.44525e-07
 1.34313e-07
 1.22573e-06
 1.02423e-06
 8.64028e-07
 7.35954e-07
 6.32704e-07
 5.48678e-07
 4.79634e-07
 4.22367e-07
 3.74440e-07
 3.33993e-07
 2.99590e-07
 2.70114e-07
 2.44688e-07
 2.22618e-07
 2.03349e-07
 1.86435e-07
 1.71512e-07
 1.58286e-07
 1.46511e-07
 1.35986e-07
 1.39858e-06
 1.13969e-06
 9.43197e-07
 7.91552e-07
 6.72601e-07
 5.77864e-07
 5.01353e-07
 4.38776e-07
 3.87007e-07
 3.43733e-07
 3.07221e-07
 2.76150e-07
 2.49505e-07
 2.26491e-07
 2.06486e-07
 1.88991e-07
 1.73608e-07
 1.60012e-07
 1.47939e-07
 1.37172e-07
 1.55883e-06
 1.24140e-06
 1.01017e-06
 8.37054e-07
 7.04347e-07
 6.00519e-07
 5.17837e-07
 4.50972e-07
 3.96161e-07
 3.50691e-07
 3.12567e-07
 2.80297e-07
 2.52748e-07
 2.29046e-07
 2.08509e-07
 1.90602e-07
 1.74896e-07
 1.61045e-07
 1.48770e-07
 1.37840e-07
 1.68328e-06
 1.31625e-06
 1.05732e-06
 8.67871e-07
 7.25091e-07
 6.14821e-07
 5.27890e-07
 4.58150e-07
 4.01351e-07
 3.54481e-07
 3.15355e-07
 2.82357e-07
 2.54272e-07
 2.30173e-07
 2.09339e-07
 1.91208e-07
 1.75330e-07
 1.61349e-07
 1.48974e-07
 1.37969e-07
 1.74821e-06
 1.35219e-06
 1.07814e-06
 8.80298e-07
 7.32631e-07
 6.19409e-07
 5.30646e-07
 4.59745e-07
 4.02199e-07
 3.54844e-07
 3.15402e-07
 2.82201e-07
 2.53986e-07
 2.29806e-07
 2.08926e-07
 1.90770e-07
 1.74884e-07
 1.60905e-07
 1.48538e-07
 1.37545e-07
 1.73833e-06
 1.34208e-06
 1.06903e-06
 8.72394e-07
 7.25867e-07
 6.13637e-07
 5.25711e-07
 4.55509e-07
 3.98546e-07
 3.51678e-07
 3.12643e-07
 2.79784e-07
 2.51860e-07
 2.27926e-07
 2.07256e-07
 1.89281e-07
 1.73551e-07
 1.59707e-07
 1.47458e-07
 1.36568e-07
 1.65400e-06
 1.28648e-06
 1.03042e-06
 8.44501e-07
 7.05057e-07
 5.97698e-07
 5.13233e-07
 4.45557e-07
 3.90482e-07
 3.45051e-07
 3.07133e-07
 2.75152e-07
 2.47928e-07
 2.24561e-07
 2.04354e-07
 1.86760e-07
 1.71348e-07
 1.57770e-07
 1.45746e-07
 1.35047e-07
 1.51092e-06
 1.19330e-06
 9.66690e-07
 7.99171e-07
 6.71774e-07
 5.72605e-07
 4.93887e-07
 4.30353e-07
 3.78332e-07
 3.35202e-07
 2.99044e-07
 2.68434e-07
 2.42291e-07
 2.19788e-07
 2.00279e-07
 1.83255e-07
 1.68312e-07
 1.55124e-07
 1.43426e-07
 1.33003e-07
 1.33265e-06
 1.07496e-06
 8.84802e-07
 7.40544e-07
 6.28588e-07
 5.40014e-07
 4.68775e-07
 4.10651e-07
 3.62629e-07
 3.22508e-07
 2.88655e-07
 2.59836e-07
 2.35105e-07
 2.13726e-07
 1.95124e-07
 1.78838e-07
 1.64501e-07
 1.51815e-07
 1.40537e-07
 1.30466e-07
 1.14227e-06
 9.44627e-07
 7.92591e-07
 6.73457e-07
 5.78589e-07
 5.01961e-07
 4.39274e-07
 3.87406e-07
 3.44045e-07
 3.07458e-07
 2.76325e-07
 2.49627e-07
 2.26571e-07
 2.06531e-07
 1.89008e-07
 1.73603e-07
 1.59990e-07
 1.47904e-07
 1.37126e-07
 1.27476e-07
 9.57516e-07
 8.13530e-07
 6.97260e-07
 6.02612e-07
 5.24909e-07
 4.60574e-07
 4.06862e-07
 3.61661e-07
 3.23333e-07
 2.90601e-07
 2.62459e-07
 2.38111e-07
 2.16923e-07
 1.98382e-07
 1.82074e-07
 1.67661e-07
 1.54866e-07
 1.43460e-07
 1.33251e-07
 1.24079e-07
 7.89610e-07
 6.89755e-07
 6.04491e-07
 5.31986e-07
 4.70346e-07
 4.17839e-07
 3.72963e-07
 3.34451e-07
 3.01253e-07
 2.72502e-07
 2.47485e-07
 2.25615e-07
 2.06411e-07
 1.89473e-07
 1.74473e-07
 1.61134e-07
 1.49228e-07
 1.38562e-07
 1.28974e-07
 1.20327e-07
 6.43934e-07
 5.78132e-07
 5.18167e-07
 4.64559e-07
 4.17143e-07
 3.75434e-07
 3.38831e-07
 3.06720e-07
 2.78520e-07
 2.53707e-07
 2.31821e-07
 2.12462e-07
 1.95289e-07
 1.80006e-07
 1.66363e-07
 1.54147e-07
 1.43176e-07
 1.33292e-07
 1.24363e-07
 1.16275e-07
 5.21610e-07
 4.80784e-07
 4.40485e-07
 4.02277e-07
 3.66910e-07
 3.34650e-07
 3.05488e-07
 2.79267e-07
 2.55758e-07
 2.34705e-07
 2.15853e-07
 1.98958e-07
 1.83798e-07
 1.70172e-07
 1.57901e-07
 1.46828e-07
 1.36813e-07
 1.27735e-07
 1.19488e-07
 1.11980e-07
 4.21152e-07
 3.97904e-07
 3.72305e-07
 3.46182e-07
 3.20660e-07
 2.96386e-07
 2.73696e-07
 2.52725e-07
 2.33485e-07
 2.15916e-07
 1.99920e-07
 1.85377e-07
 1.72163e-07
 1.60155e-07
 1.49235e-07
 1.39296e-07
 1.30239e-07
 1.21972e-07
 1.14417e-07
 1.07500e-07
 3.39816e-07
 3.28517e-07
 3.13552e-07
 2.96622e-07
 2.78905e-07
 2.61187e-07
 2.43969e-07
 2.27551e-07
 2.12096e-07
 1.97677e-07
 1.84305e-07
 1.71955e-07
 1.60578e-07
 1.50115e-07
 1.40499e-07
 1.31665e-07
 1.23547e-07
 1.16083e-07
 1.09215e-07
 1.02889e-07
