scalar
part
         1
quad4
 3.36431e-07
 3.25834e-07
 3.11434e-07
 2.94954e-07
 2.77593e-07
 2.60156e-07
 2.43159e-07
 2.26916e-07
 2.11601e-07
 1.97292e-07
 1.84008e-07
 1.71729e-07
 1.60409e-07
 1.49991e-07
 1.40413e-07
 1.31609e-07
 1.23515e-07
 1.16070e-07
 1.09218e-07
 1.02905e-07
 4.17723e-07
 3.95283e-07
 3.70306e-07
 3.44660e-07
 3.19503e-07
 2.95508e-07
 2.73032e-07
 2.52226e-07
 2.33114e-07
 2.15645e-07
 1.99726e-07
 1.85244e-07
 1.72077e-07
 1.60106e-07
 1.49216e-07
 1.39301e-07
 1.30261e-07
 1.22010e-07
 1.14465e-07
 1.07557e-07
 5.18277e-07
 4.78349e-07
 4.38710e-07
 4.00986e-07
 3.65975e-07
 3.33978e-07
 3.05012e-07
 2.78937e-07
 2.55537e-07
 2.34567e-07
 2.15777e-07
 1.98930e-07
 1.83806e-07
 1.70207e-07
 1.57957e-07
 1.46899e-07
 1.36895e-07
 1.27826e-07
 1.19585e-07
 1.12081e-07
 6.40914e-07
 5.76060e-07
 5.16752e-07
 4.63603e-07
 4.16508e-07
 3.75026e-07
 3.38586e-07
 3.06590e-07
 2.78473e-07
 2.53720e-07
 2.31878e-07
 2.12550e-07
 1.95398e-07
 1.80131e-07
 1.66498e-07
 1.54289e-07
 1.43321e-07
 1.33439e-07
 1.24511e-07
 1.16421e-07
 7.87215e-07
 6.88274e-07
 6.03601e-07
 5.31480e-07
 4.70094e-07
 4.17755e-07
 3.72990e-07
 3.34553e-07
 3.01404e-07
 2.72685e-07
 2.47687e-07
 2.25829e-07
 2.06630e-07
 1.89694e-07
 1.74692e-07
 1.61350e-07
 1.49439e-07
 1.38767e-07
 1.29173e-07
 1.20520e-07
 9.56159e-07
 8.12913e-07
 6.97071e-07
 6.02674e-07
 5.25118e-07
 4.60867e-07
 4.07201e-07
 3.62021e-07
 3.23701e-07
 2.90966e-07
 2.62817e-07
 2.38459e-07
 2.17257e-07
 1.98702e-07
 1.82380e-07
 1.67954e-07
 1.55145e-07
 1.43726e-07
 1.33504e-07
 1.24320e-07
 1.14242e-06
 9.45152e-07
 7.93274e-07
 6.74193e-07
 5.79326e-07
 5.02674e-07
 4.39953e-07
 3.88045e-07
 3.44643e-07
 3.08017e-07
 2.76846e-07
 2.50113e-07
 2.27024e-07
 2.06954e-07
 1.89405e-07
 1.73974e-07
 1.60338e-07
 1.48230e-07
 1.37433e-07
 1.27766e-07
 1.33475e-06
 1.07686e-06
 8.86479e-07
 7.42024e-07
 6.29896e-07
 5.41175e-07
 4.69810e-07
 4.11579e-07
 3.63464e-07
 3.23264e-07
 2.89342e-07
 2.60463e-07
 2.35678e-07
 2.14253e-07
 1.95609e-07
 1.79287e-07
 1.64918e-07
 1.52203e-07
 1.40898e-07
 1.30804e-07
 1.51518e-06
 1.19666e-06
 9.69405e-07
 8.01415e-07
 6.73661e-07
 5.74215e-07
 4.95278e-07
 4.31568e-07
 3.79403e-07
 3.36152e-07
 2.99894e-07
 2.69198e-07
 2.42983e-07
 2.20417e-07
 2.00853e-07
 1.83781e-07
 1.68796e-07
 1.55571e-07
 1.43841e-07
 1.33388e-07
 1.66030e-06
 1.29121e-06
 1.03411e-06
 8.47463e-07
 7.07490e-07
 5.99734e-07
 5.14963e-07
 4.47046e-07
 3.91777e-07
 3.46189e-07
 3.08140e-07
 2.76050e-07
 2.48734e-07
 2.25289e-07
 2.05014e-07
 1.87362e-07
 1.71898e-07
 1.58275e-07
 1.46212e-07
 1.35478e-07
 1.74617e-06
 1.34791e-06
 1.07352e-06
 8.75969e-07
 7.28777e-07
 6.16051e-07
 5.27746e-07
 4.57247e-07
 4.00048e-07
 3.52988e-07
 3.13796e-07
 2.80807e-07
 2.52772e-07
 2.28746e-07
 2.07997e-07
 1.89953e-07
 1.74164e-07
 1.60268e-07
 1.47973e-07
 1.37043e-07
 1.75689e-06
 1.35872e-06
 1.08322e-06
 8.84341e-07
 7.35922e-07
 6.22135e-07
 5.32938e-07
 4.61697e-07
 4.03881e-07
 3.56307e-07
 3.16686e-07
 2.83336e-07
 2.54997e-07
 2.30711e-07
 2.09741e-07
 1.91508e-07
 1.75555e-07
 1.61517e-07
 1.49099e-07
 1.38061e-07
 1.69217e-06
 1.32311e-06
 1.06273e-06
 8.72222e-07
 7.28653e-07
 6.17782e-07
 5.30385e-07
 4.60277e-07
 4.03184e-07
 3.56075e-07
 3.16752e-07
 2.83591e-07
 2.55369e-07
 2.31154e-07
 2.10222e-07
 1.92005e-07
 1.76055e-07
 1.62010e-07
 1.49579e-07
 1.38524e-07
 1.56749e-06
 1.24827e-06
 1.01570e-06
 8.41561e-07
 7.08073e-07
 6.03638e-07
 5.20478e-07
 4.53231e-07
 3.98111e-07
 3.52390e-07
 3.14058e-07
 2.81615e-07
 2.53919e-07
 2.30093e-07
 2.09451e-07
 1.91453e-07
 1.75668e-07
 1.61748e-07
 1.49413e-07
 1.38431e-07
 1.40678e-06
 1.14637e-06
 9.48671e-07
 7.96086e-07
 6.76393e-07
 5.81066e-07
 5.04083e-07
 4.41124e-07
 3.89042e-07
 3.45511e-07
 3.08784e-07
 2.77534e-07
 2.50737e-07
 2.27594e-07
 2.07478e-07
 1.89888e-07
 1.74421e-07
 1.60753e-07
 1.48617e-07
 1.37794e-07
 1.23335e-06
 1.03057e-06
 8.69332e-07
 7.40414e-07
 6.36481e-07
 5.51900e-07
 4.82403e-07
 4.24763e-07
 3.76529e-07
 3.35825e-07
 3.01206e-07
 2.71548e-07
 2.45967e-07
 2.23765e-07
 2.04382e-07
 1.87369e-07
 1.72361e-07
 1.59060e-07
 1.47219e-07
 1.36636e-07
 1.06448e-06
 9.12057e-07
 7.84827e-07
 6.79157e-07
 5.91356e-07
 5.18150e-07
 4.56804e-07
 4.05093e-07
 3.61235e-07
 3.23805e-07
 2.91666e-07
 2.63908e-07
 2.39798e-07
 2.18746e-07
 2.00271e-07
 1.83981e-07
 1.69552e-07
 1.56719e-07
 1.45259e-07
 1.34987e-07
 9.10264e-07
 7.98639e-07
 7.00790e-07
 6.16272e-07
 5.43783e-07
 4.81756e-07
 4.28655e-07
 3.83093e-07
 3.43868e-07
 3.09968e-07
 2.80546e-07
 2.54898e-07
 2.32444e-07
 2.12701e-07
 1.95270e-07
 1.79819e-07
 1.66070e-07
 1.53789e-07
 1.42783e-07
 1.32885e-07
 7.75024e-07
 6.94844e-07
 6.21058e-07
 5.54760e-07
 4.96025e-07
 4.44402e-07
 3.99206e-07
 3.59687e-07
 3.25119e-07
 2.94832e-07
 2.68237e-07
 2.44818e-07
 2.24134e-07
 2.05808e-07
 1.89519e-07
 1.74994e-07
 1.62000e-07
 1.50341e-07
 1.39847e-07
 1.30375e-07
 6.59379e-07
 6.02643e-07
 5.47844e-07
 4.96632e-07
 4.49762e-07
 4.07429e-07
 3.69505e-07
 3.35692e-07
 3.05616e-07
 2.78884e-07
 2.55117e-07
 2.33961e-07
 2.15099e-07
 1.98248e-07
 1.83160e-07
 1.69619e-07
 1.57435e-07
 1.46447e-07
 1.36511e-07
 1.27506e-07
