# vtk DataFile Version 2.0
gauge_2
ASCII
DATASET POLYDATA
POINTS 119 double
0.2 0.0314993 0.005
0.2 0.0329993 0.005
0.2 0.0344993 0.005
0.2 0.0359992 0.005
0.2 0.0374992 0.005
0.2 0.0389992 0.005
0.2 0.0404991 0.005
0.2 0.0419991 0.005
0.2 0.0434991 0.005
0.2 0.044999 0.005
0.2 0.046499 0.005
0.2 0.047999 0.005
0.2 0.0511894 0.005
0.2 0.0543799 0.005
0.2 0.0575704 0.005
0.2 0.0607609 0.005
0.2 0.0639514 0.005
0.2 0.0671419 0.005
0.2 0.0703323 0.005
0.2 0.0735228 0.005
0.2 0.0767133 0.005
0.2 0.0799038 0.005
0.2 0.0830943 0.005
0.2 0.0862847 0.005
0.2 0.0894752 0.005
0.2 0.0926657 0.005
0.2 0.0958562 0.005
0.2 0.0990467 0.005
0.2 0.105428 0.005
0.2 0.111809 0.005
0.2 0.124571 0.005
0.2 0.137332 0.005
0.2 0.150094 0.005
0.2 0.162856 0.005
0.2 0.175618 0.005
0.2 0.18838 0.005
0.2 0.201142 0.005
0.2 0.213904 0.005
0.2 0.226666 0.005
0.2 0.239428 0.005
0.2 0.25219 0.005
0.2 0.264952 0.005
0.2 0.277714 0.005
0.2 0.284095 0.005
0.2 0.287285 0.005
0.2 0.290476 0.005
0.2 0.293666 0.005
0.2 0.296857 0.005
0.2 0.300047 0.005
0.2 0.303238 0.005
0.2 0.306428 0.005
0.2 0.309619 0.005
0.2 0.312809 0.005
0.2 0.315999 0.005
0.2 0.31919 0.005
0.2 0.32238 0.005
0.2 0.325571 0.005
0.2 0.328761 0.005
0.2 0.335142 0.005
0.2 0.341523 0.005
0.2 0.354285 0.005
0.2 0.360666 0.005
0.2 0.367047 0.005
0.2 0.370238 0.005
0.2 0.373428 0.005
0.2 0.376619 0.005
0.2 0.379809 0.005
0.2 0.383 0.005
0.2 0.38619 0.005
0.2 0.389381 0.005
0.2 0.392571 0.005
0.2 0.395762 0.005
0.2 0.398952 0.005
0.2 0.402142 0.005
0.2 0.405333 0.005
0.2 0.408523 0.005
0.2 0.411714 0.005
0.2 0.414904 0.005
0.2 0.418095 0.005
0.2 0.421285 0.005
0.2 0.424476 0.005
0.2 0.427666 0.005
0.2 0.430857 0.005
0.2 0.434047 0.005
0.2 0.437238 0.005
0.2 0.440428 0.005
0.2 0.443619 0.005
0.2 0.446809 0.005
0.2 0.45 0.005
0.2 0.45319 0.005
0.2 0.456381 0.005
0.2 0.459571 0.005
0.2 0.462762 0.005
0.2 0.465952 0.005
0.2 0.469143 0.005
0.2 0.472333 0.005
0.2 0.475524 0.005
0.2 0.478714 0.005
0.2 0.481905 0.005
0.2 0.485095 0.005
0.2 0.488286 0.005
0.2 0.491476 0.005
0.2 0.494666 0.005
0.2 0.497857 0.005
0.2 0.501047 0.005
0.2 0.504238 0.005
0.2 0.507428 0.005
0.2 0.510619 0.005
0.2 0.513809 0.005
0.2 0.517 0.005
0.2 0.52019 0.005
0.2 0.523381 0.005
0.2 0.526571 0.005
0.2 0.529762 0.005
0.2 0.532952 0.005
0.2 0.536143 0.005
0.2 0.539333 0.005
0.2 0.545714 0.005
0.2 0.558476 0.005
POINT_DATA 119
 FIELD attributes 1
alpha.water 1 119 float
1 1 1 1 1 1 1 1 1 1 1 1 1 1 1 1 1 0.999987 0.999967 0.999935 1.00001 0.986428 0.898771 0.626425 0.301911 0.000380643 6.0756e-11 1.69939e-10 4.29809e-10 4.85954e-10 3.89653e-10 3.17185e-10 2.00926e-10 7.16947e-11 8.53047e-12 3.02512e-14 5.01407e-15 3.51396e-17 2.52003e-16 2.9886e-14 2.28846e-12 2.15919e-10 6.88202e-09 2.89041e-07 4.97537e-06 0.000661775 0.00653084 0.00436971 0.00456489 0.00342256 0.00119946 0.000348363 0.00082101 0.00101218 0.00096873 3.31177e-05 1.82793e-06 9.16752e-07 1.69695e-06 9.03911e-07 7.0975e-09 6.87706e-09 6.10314e-09 -0.000436371 1.69369e-05 0.000458817 0.00121625 0.00530455 0.000733854 0.000232616 0.000921593 0.000529662 0.00128256 0.00133097 0.002612 0.00476041 0.0100216 0.0160687 0.018876 0.0249443 0.0127155 0.009104 0.00308281 7.43611e-06 2.37919e-05 4.56258e-06 3.30602e-05 -7.28527e-05 0.00026107 0.000960438 0.00191399 0.00518374 0.00229838 0.00220489 0.00126534 0.000542352 0.000305748 0.0007761 0.000963463 4.00238e-05 0.00161449 0.00450772 0.00667221 0.0137804 0.00357908 0.000444309 0.000221853 0.00041489 0.000289788 0.000573256 0.000852933 0.000425709 0.000542331 0.000186021 2.04705e-07 2.35491e-07 1.07534e-11 4.35871e-16 -6.27082e-20
