scalar
part
         1
quad4
 6.44079e-07
 5.89761e-07
 5.37065e-07
 4.87641e-07
 4.42268e-07
 4.01178e-07
 3.64280e-07
 3.31313e-07
 3.01934e-07
 2.75777e-07
 2.52485e-07
 2.31725e-07
 2.13191e-07
 1.96615e-07
 1.81758e-07
 1.68410e-07
 1.56391e-07
 1.45542e-07
 1.35725e-07
 1.26821e-07
 7.58004e-07
 6.80895e-07
 6.09673e-07
 5.45478e-07
 4.88447e-07
 4.38198e-07
 3.94107e-07
 3.55480e-07
 3.21631e-07
 2.91927e-07
 2.65806e-07
 2.42776e-07
 2.22411e-07
 2.04348e-07
 1.88278e-07
 1.73935e-07
 1.61094e-07
 1.49564e-07
 1.39179e-07
 1.29799e-07
 8.91529e-07
 7.83770e-07
 6.89002e-07
 6.06907e-07
 5.36312e-07
 4.75766e-07
 4.23824e-07
 3.79173e-07
 3.40669e-07
 3.07342e-07
 2.78379e-07
 2.53101e-07
 2.30947e-07
 2.11449e-07
 1.94219e-07
 1.78933e-07
 1.65321e-07
 1.53155e-07
 1.42245e-07
 1.32427e-07
 1.04426e-06
 8.96611e-07
 7.72985e-07
 6.70022e-07
 5.84256e-07
 5.12587e-07
 4.52410e-07
 4.01596e-07
 3.58432e-07
 3.21543e-07
 2.89829e-07
 2.62409e-07
 2.38569e-07
 2.17735e-07
 1.99436e-07
 1.83289e-07
 1.68979e-07
 1.56243e-07
 1.44863e-07
 1.34658e-07
 1.21229e-06
 1.01518e-06
 8.57979e-07
 7.31943e-07
 6.30087e-07
 5.47020e-07
 4.78641e-07
 4.21837e-07
 3.74234e-07
 3.34013e-07
 2.99768e-07
 2.70400e-07
 2.45049e-07
 2.23028e-07
 2.03790e-07
 1.86894e-07
 1.71981e-07
 1.58756e-07
 1.46978e-07
 1.36446e-07
 1.38613e-06
 1.13205e-06
 9.38565e-07
 7.88830e-07
 6.71104e-07
 5.77159e-07
 5.01164e-07
 4.38923e-07
 3.87371e-07
 3.44236e-07
 3.07809e-07
 2.76788e-07
 2.50167e-07
 2.27161e-07
 2.07153e-07
 1.89647e-07
 1.74248e-07
 1.60633e-07
 1.48540e-07
 1.37751e-07
 1.54934e-06
 1.23645e-06
 1.00779e-06
 8.36158e-07
 7.04321e-07
 6.01001e-07
 5.18610e-07
 4.51904e-07
 3.97171e-07
 3.51730e-07
 3.13604e-07
 2.81312e-07
 2.53731e-07
 2.29990e-07
 2.09412e-07
 1.91463e-07
 1.75714e-07
 1.61822e-07
 1.49508e-07
 1.38541e-07
 1.67938e-06
 1.31547e-06
 1.05805e-06
 8.69316e-07
 7.26852e-07
 6.16687e-07
 5.29752e-07
 4.59951e-07
 4.03064e-07
 3.56094e-07
 3.16865e-07
 2.83767e-07
 2.55588e-07
 2.31400e-07
 2.10484e-07
 1.92277e-07
 1.76330e-07
 1.62285e-07
 1.49851e-07
 1.38791e-07
 1.75250e-06
 1.35688e-06
 1.08267e-06
 8.84465e-07
 7.36397e-07
 6.22788e-07
 5.33674e-07
 4.62461e-07
 4.04642e-07
 3.57048e-07
 3.17398e-07
 2.84014e-07
 2.55639e-07
 2.31319e-07
 2.10314e-07
 1.92048e-07
 1.76064e-07
 1.61997e-07
 1.49552e-07
 1.38489e-07
 1.75230e-06
 1.35290e-06
 1.07765e-06
 8.79419e-07
 7.31700e-07
 6.18556e-07
 5.29914e-07
 4.59141e-07
 4.01716e-07
 3.54467e-07
 3.15117e-07
 2.81993e-07
 2.53844e-07
 2.29718e-07
 2.08882e-07
 1.90763e-07
 1.74908e-07
 1.60953e-07
 1.48607e-07
 1.37630e-07
 1.67707e-06
 1.30305e-06
 1.04289e-06
 8.54212e-07
 7.12834e-07
 6.04067e-07
 5.18544e-07
 4.50054e-07
 3.94339e-07
 3.48396e-07
 3.10061e-07
 2.77737e-07
 2.50228e-07
 2.26620e-07
 2.06207e-07
 1.88438e-07
 1.72874e-07
 1.59163e-07
 1.47024e-07
 1.36223e-07
 1.54053e-06
 1.21428e-06
 9.82229e-07
 8.11100e-07
 6.81197e-07
 5.80225e-07
 5.00169e-07
 4.35617e-07
 3.82806e-07
 3.39048e-07
 3.02386e-07
 2.71364e-07
 2.44881e-07
 2.22093e-07
 2.02343e-07
 1.85115e-07
 1.69996e-07
 1.56656e-07
 1.44826e-07
 1.34287e-07
 1.36534e-06
 1.09846e-06
 9.02332e-07
 7.54030e-07
 6.39235e-07
 5.48605e-07
 4.75836e-07
 4.16547e-07
 3.67620e-07
 3.26784e-07
 2.92356e-07
 2.63069e-07
 2.37952e-07
 2.16252e-07
 1.97379e-07
 1.80863e-07
 1.66330e-07
 1.53474e-07
 1.42049e-07
 1.31850e-07
 1.17489e-06
 9.68795e-07
 8.10974e-07
 6.87779e-07
 5.89986e-07
 5.11201e-07
 4.46891e-07
 3.93774e-07
 3.49438e-07
 3.12077e-07
 2.80319e-07
 2.53113e-07
 2.29637e-07
 2.09247e-07
 1.91430e-07
 1.75774e-07
 1.61947e-07
 1.49677e-07
 1.38739e-07
 1.28950e-07
 9.87967e-07
 8.36923e-07
 7.15521e-07
 6.17107e-07
 5.36601e-07
 4.70146e-07
 4.14806e-07
 3.68337e-07
 3.29006e-07
 2.95470e-07
 2.66677e-07
 2.41796e-07
 2.20165e-07
 2.01254e-07
 1.84634e-07
 1.69956e-07
 1.56934e-07
 1.45332e-07
 1.34953e-07
 1.25633e-07
 8.16847e-07
 7.11468e-07
 6.21931e-07
 5.46133e-07
 4.81947e-07
 4.27458e-07
 3.81024e-07
 3.41275e-07
 3.07086e-07
 2.77531e-07
 2.51855e-07
 2.29442e-07
 2.09785e-07
 1.92467e-07
 1.77143e-07
 1.63529e-07
 1.51387e-07
 1.40517e-07
 1.30752e-07
 1.21950e-07
 6.67688e-07
 5.97739e-07
 5.34362e-07
 4.77994e-07
 4.28359e-07
 3.84868e-07
 3.46828e-07
 3.13552e-07
 2.84402e-07
 2.58808e-07
 2.36275e-07
 2.16377e-07
 1.98750e-07
 1.83084e-07
 1.69115e-07
 1.56620e-07
 1.45407e-07
 1.35314e-07
 1.26203e-07
 1.17955e-07
 5.42056e-07
 4.98188e-07
 4.55241e-07
 4.14788e-07
 3.77545e-07
 3.43729e-07
 3.13280e-07
 2.85992e-07
 2.61595e-07
 2.39802e-07
 2.20329e-07
 2.02911e-07
 1.87307e-07
 1.73303e-07
 1.60707e-07
 1.49354e-07
 1.39096e-07
 1.29808e-07
 1.21377e-07
 1.13706e-07
 4.38658e-07
 4.13207e-07
 3.85587e-07
 3.57674e-07
 3.30600e-07
 3.04998e-07
 2.81179e-07
 2.59251e-07
 2.39201e-07
 2.20945e-07
 2.04364e-07
 1.89322e-07
 1.75681e-07
 1.63305e-07
 1.52068e-07
 1.41854e-07
 1.32556e-07
 1.24080e-07
 1.16340e-07
 1.09260e-07
 3.54805e-07
 3.41914e-07
 3.25420e-07
 3.07081e-07
 2.88100e-07
 2.69267e-07
 2.51076e-07
 2.33815e-07
 2.17632e-07
 2.02585e-07
 1.88672e-07
 1.75854e-07
 1.64072e-07
 1.53257e-07
 1.43336e-07
 1.34234e-07
 1.25881e-07
 1.18211e-07
 1.11161e-07
 1.04673e-07
