scalar
part
         1
quad4
 4.84199e-07
 4.51924e-07
 4.18585e-07
 3.85870e-07
 3.54765e-07
 3.25778e-07
 2.99113e-07
 2.74790e-07
 2.52717e-07
 2.32747e-07
 2.14709e-07
 1.98423e-07
 1.83715e-07
 1.70421e-07
 1.58392e-07
 1.47490e-07
 1.37594e-07
 1.28595e-07
 1.20397e-07
 1.12914e-07
 5.81231e-07
 5.31617e-07
 4.83740e-07
 4.39094e-07
 3.98313e-07
 3.61524e-07
 3.28579e-07
 2.99196e-07
 2.73037e-07
 2.49755e-07
 2.29021e-07
 2.10529e-07
 1.94009e-07
 1.79217e-07
 1.65944e-07
 1.54005e-07
 1.43239e-07
 1.33507e-07
 1.24688e-07
 1.16678e-07
 6.97595e-07
 6.23868e-07
 5.56905e-07
 4.97327e-07
 4.44909e-07
 3.99047e-07
 3.59004e-07
 3.24039e-07
 2.93466e-07
 2.66670e-07
 2.43120e-07
 2.22357e-07
 2.03991e-07
 1.87692e-07
 1.73179e-07
 1.60213e-07
 1.48593e-07
 1.38146e-07
 1.28726e-07
 1.20207e-07
 8.34415e-07
 7.28228e-07
 6.37052e-07
 5.59423e-07
 4.93486e-07
 4.37424e-07
 3.89620e-07
 3.48695e-07
 3.13499e-07
 2.83087e-07
 2.56681e-07
 2.33644e-07
 2.13452e-07
 1.95675e-07
 1.79957e-07
 1.66002e-07
 1.53564e-07
 1.42437e-07
 1.32448e-07
 1.23451e-07
 9.90339e-07
 8.42393e-07
 7.21877e-07
 6.23394e-07
 5.42431e-07
 4.75386e-07
 4.19439e-07
 3.72395e-07
 3.32543e-07
 2.98544e-07
 2.69344e-07
 2.44107e-07
 2.22168e-07
 2.02989e-07
 1.86137e-07
 1.71257e-07
 1.58060e-07
 1.46305e-07
 1.35793e-07
 1.26357e-07
 1.15983e-06
 9.61455e-07
 8.07515e-07
 6.86330e-07
 5.89586e-07
 5.11337e-07
 4.47280e-07
 3.94261e-07
 3.49937e-07
 3.12542e-07
 2.80728e-07
 2.53455e-07
 2.29912e-07
 2.09456e-07
 1.91578e-07
 1.75868e-07
 1.61991e-07
 1.49677e-07
 1.38702e-07
 1.28879e-07
 1.33161e-06
 1.07748e-06
 8.88508e-07
 7.44477e-07
 6.32351e-07
 5.43454e-07
 4.71847e-07
 4.13360e-07
 3.65000e-07
 3.24576e-07
 2.90455e-07
 2.61401e-07
 2.36464e-07
 2.14907e-07
 1.96149e-07
 1.79729e-07
 1.65275e-07
 1.52488e-07
 1.41121e-07
 1.30974e-07
 1.48853e-06
 1.17993e-06
 9.58244e-07
 7.93583e-07
 6.67921e-07
 5.69846e-07
 4.91837e-07
 4.28776e-07
 3.77079e-07
 3.34173e-07
 2.98176e-07
 2.67683e-07
 2.41628e-07
 2.19191e-07
 1.99733e-07
 1.82750e-07
 1.67840e-07
 1.54680e-07
 1.43006e-07
 1.32603e-07
 1.60995e-06
 1.25725e-06
 1.00992e-06
 8.29475e-07
 6.93649e-07
 5.88779e-07
 5.06085e-07
 4.39708e-07
 3.85608e-07
 3.40927e-07
 3.03596e-07
 2.72083e-07
 2.45238e-07
 2.22182e-07
 2.02233e-07
 1.84856e-07
 1.69627e-07
 1.56206e-07
 1.44318e-07
 1.33737e-07
 1.67695e-06
 1.29940e-06
 1.03787e-06
 8.48793e-07
 7.07451e-07
 5.98915e-07
 5.13706e-07
 4.45553e-07
 3.90170e-07
 3.44543e-07
 3.06500e-07
 2.74445e-07
 2.47179e-07
 2.23793e-07
 2.03581e-07
 1.85994e-07
 1.70595e-07
 1.57035e-07
 1.45032e-07
 1.34356e-07
 1.67820e-06
 1.30056e-06
 1.03888e-06
 8.49649e-07
 7.08170e-07
 5.99520e-07
 5.14216e-07
 4.45986e-07
 3.90540e-07
 3.44860e-07
 3.06774e-07
 2.74682e-07
 2.47387e-07
 2.23975e-07
 2.03742e-07
 1.86137e-07
 1.70722e-07
 1.57148e-07
 1.45133e-07
 1.34447e-07
 1.61387e-06
 1.26078e-06
 1.01295e-06
 8.32028e-07
 6.95791e-07
 5.90579e-07
 5.07604e-07
 4.40996e-07
 3.86708e-07
 3.41872e-07
 3.04412e-07
 2.72792e-07
 2.45858e-07
 2.22726e-07
 2.02713e-07
 1.85282e-07
 1.70006e-07
 1.56545e-07
 1.44622e-07
 1.34011e-07
 1.49542e-06
 1.18588e-06
 9.63262e-07
 7.97781e-07
 6.71434e-07
 5.72795e-07
 4.94326e-07
 4.30890e-07
 3.78884e-07
 3.35725e-07
 2.99518e-07
 2.68850e-07
 2.42649e-07
 2.20088e-07
 2.00525e-07
 1.83453e-07
 1.68467e-07
 1.55240e-07
 1.43509e-07
 1.33056e-07
 1.34162e-06
 1.08581e-06
 8.95417e-07
 7.50218e-07
 6.37143e-07
 5.47476e-07
 4.75244e-07
 4.16249e-07
 3.67472e-07
 3.26704e-07
 2.92298e-07
 2.63006e-07
 2.37870e-07
 2.16144e-07
 1.97243e-07
 1.80700e-07
 1.66142e-07
 1.53263e-07
 1.41818e-07
 1.31602e-07
 1.17269e-06
 9.71926e-07
 8.16115e-07
 6.93449e-07
 5.95525e-07
 5.16326e-07
 4.51502e-07
 3.97858e-07
 3.53021e-07
 3.15203e-07
 2.83037e-07
 2.55470e-07
 2.31679e-07
 2.11014e-07
 1.92958e-07
 1.77094e-07
 1.63086e-07
 1.50659e-07
 1.39585e-07
 1.29676e-07
 1.00543e-06
 8.54592e-07
 7.31872e-07
 6.31670e-07
 5.49346e-07
 4.81210e-07
 4.24382e-07
 3.76618e-07
 3.36175e-07
 3.01686e-07
 2.72077e-07
 2.46498e-07
 2.24269e-07
 2.04845e-07
 1.87783e-07
 1.72723e-07
 1.59371e-07
 1.47481e-07
 1.36852e-07
 1.27315e-07
 8.50931e-07
 7.41637e-07
 6.48083e-07
 5.68595e-07
 5.01183e-07
 4.43935e-07
 3.95168e-07
 3.53453e-07
 3.17606e-07
 2.86652e-07
 2.59792e-07
 2.36372e-07
 2.15856e-07
 1.97803e-07
 1.81848e-07
 1.67690e-07
 1.55076e-07
 1.43796e-07
 1.33674e-07
 1.24559e-07
 7.14762e-07
 6.37963e-07
 5.68602e-07
 5.07125e-07
 4.53184e-07
 4.06086e-07
 3.65033e-07
 3.29235e-07
 2.97969e-07
 2.70594e-07
 2.46556e-07
 2.25380e-07
 2.06663e-07
 1.90064e-07
 1.75292e-07
 1.62103e-07
 1.50289e-07
 1.39673e-07
 1.30106e-07
 1.21457e-07
 5.98422e-07
 5.45939e-07
 4.95762e-07
 4.49259e-07
 4.06967e-07
 3.68938e-07
 3.34968e-07
 3.04732e-07
 2.77858e-07
 2.53975e-07
 2.32731e-07
 2.13805e-07
 1.96913e-07
 1.81803e-07
 1.68254e-07
 1.56075e-07
 1.45101e-07
 1.35187e-07
 1.26209e-07
 1.18058e-07
 5.00966e-07
 4.66111e-07
 4.30647e-07
 3.96178e-07
 3.63619e-07
 3.33423e-07
 3.05747e-07
 2.80572e-07
 2.57779e-07
 2.37199e-07
 2.18640e-07
 2.01907e-07
 1.86815e-07
 1.73190e-07
 1.60872e-07
 1.49719e-07
 1.39603e-07
 1.30412e-07
 1.22044e-07
 1.14412e-07
