# vtk DataFile Version 2.0
gauge_1
ASCII
DATASET POLYDATA
POINTS 15 double
0.02 0.201142 0.005
0.02 0.204333 0.005
0.02 0.207523 0.005
0.02 0.210714 0.005
0.02 0.213904 0.005
0.02 0.217095 0.005
0.02 0.220285 0.005
0.02 0.223475 0.005
0.02 0.226666 0.005
0.02 0.229856 0.005
0.02 0.233047 0.005
0.02 0.236237 0.005
0.02 0.239428 0.005
0.02 0.245809 0.005
0.02 0.25219 0.005
POINT_DATA 15
 FIELD attributes 1
alpha.water 1 15 float
0.999821 0.999668 0.999468 0.999112 0.998551 0.998275 0.997041 0.972375 0.63833 0.161778 0.00134344 -2.8692e-13 -4.09927e-13 -5.10717e-13 -4.70831e-13
