scalar
part
         1
quad4
 5.99163e-07
 5.50239e-07
 5.02378e-07
 4.57219e-07
 4.15568e-07
 3.77705e-07
 3.43594e-07
 3.13029e-07
 2.85722e-07
 2.61352e-07
 2.39606e-07
 2.20184e-07
 2.02815e-07
 1.87254e-07
 1.73284e-07
 1.60715e-07
 1.49382e-07
 1.39138e-07
 1.29858e-07
 1.21431e-07
 7.08030e-07
 6.37668e-07
 5.72318e-07
 5.13165e-07
 4.60433e-07
 4.13832e-07
 3.72835e-07
 3.36831e-07
 3.05211e-07
 2.77407e-07
 2.52910e-07
 2.31274e-07
 2.12111e-07
 1.95088e-07
 1.79921e-07
 1.66366e-07
 1.54216e-07
 1.43292e-07
 1.33442e-07
 1.24537e-07
 8.36166e-07
 7.36803e-07
 6.49103e-07
 5.72906e-07
 5.07211e-07
 4.50734e-07
 4.02176e-07
 3.60347e-07
 3.24208e-07
 2.92871e-07
 2.65591e-07
 2.41745e-07
 2.20814e-07
 2.02368e-07
 1.86045e-07
 1.71547e-07
 1.58622e-07
 1.47058e-07
 1.36676e-07
 1.27326e-07
 9.83418e-07
 8.46103e-07
 7.30871e-07
 6.34695e-07
 5.54419e-07
 4.87206e-07
 4.30663e-07
 3.82831e-07
 3.42130e-07
 3.07289e-07
 2.77292e-07
 2.51317e-07
 2.28704e-07
 2.08917e-07
 1.91517e-07
 1.76147e-07
 1.62511e-07
 1.50363e-07
 1.39499e-07
 1.29749e-07
 1.14628e-06
 9.61694e-07
 8.14253e-07
 6.95854e-07
 6.00007e-07
 5.21706e-07
 4.57140e-07
 4.03415e-07
 3.58323e-07
 3.20167e-07
 2.87635e-07
 2.59701e-07
 2.35557e-07
 2.14561e-07
 1.96200e-07
 1.80057e-07
 1.65796e-07
 1.53139e-07
 1.41857e-07
 1.31761e-07
 1.31597e-06
 1.07664e-06
 8.94181e-07
 7.52776e-07
 6.41425e-07
 5.52425e-07
 4.80316e-07
 4.21168e-07
 3.72108e-07
 3.31003e-07
 2.96247e-07
 2.66614e-07
 2.41157e-07
 2.19135e-07
 1.99964e-07
 1.83177e-07
 1.68398e-07
 1.55321e-07
 1.43697e-07
 1.33321e-07
 1.47705e-06
 1.18083e-06
 9.64092e-07
 8.01172e-07
 6.75826e-07
 5.77441e-07
 4.98868e-07
 4.35164e-07
 3.82827e-07
 3.39322e-07
 3.02780e-07
 2.71799e-07
 2.45312e-07
 2.22493e-07
 2.02698e-07
 1.85419e-07
 1.70248e-07
 1.56857e-07
 1.44979e-07
 1.34395e-07
 1.60826e-06
 1.26205e-06
 1.01676e-06
 8.36622e-07
 7.00423e-07
 5.94944e-07
 5.11592e-07
 4.44584e-07
 3.89910e-07
 3.44721e-07
 3.06944e-07
 2.75044e-07
 2.47863e-07
 2.24515e-07
 2.04312e-07
 1.86714e-07
 1.71293e-07
 1.57704e-07
 1.45668e-07
 1.34957e-07
 1.68722e-06
 1.30866e-06
 1.04575e-06
 8.55377e-07
 7.12938e-07
 6.03501e-07
 5.17556e-07
 4.48805e-07
 3.92932e-07
 3.46903e-07
 3.08528e-07
 2.76197e-07
 2.48700e-07
 2.25119e-07
 2.04744e-07
 1.87017e-07
 1.71498e-07
 1.57835e-07
 1.45743e-07
 1.34990e-07
 1.69822e-06
 1.31300e-06
 1.04701e-06
 8.55168e-07
 7.12033e-07
 6.02290e-07
 5.16241e-07
 4.47489e-07
 3.91668e-07
 3.45715e-07
 3.07426e-07
 2.75182e-07
 2.47770e-07
 2.24268e-07
 2.03965e-07
 1.86305e-07
 1.70846e-07
 1.57238e-07
 1.45196e-07
 1.34488e-07
 1.63878e-06
 1.27399e-06
 1.02003e-06
 8.35744e-07
 6.97585e-07
 5.91253e-07
 5.07620e-07
 4.40627e-07
 3.86118e-07
 3.41162e-07
 3.03645e-07
 2.72007e-07
 2.45079e-07
 2.21967e-07
 2.01983e-07
 1.84584e-07
 1.69344e-07
 1.55918e-07
 1.44030e-07
 1.33453e-07
 1.52018e-06
 1.19730e-06
 9.67928e-07
 7.98917e-07
 6.70707e-07
 5.71103e-07
 4.92168e-07
 4.28545e-07
 3.76510e-07
 3.33409e-07
 2.97306e-07
 2.66764e-07
 2.40696e-07
 2.18270e-07
 1.98838e-07
 1.81888e-07
 1.67016e-07
 1.53896e-07
 1.42263e-07
 1.31900e-07
 1.36202e-06
 1.09325e-06
 8.96477e-07
 7.48112e-07
 6.33517e-07
 5.43203e-07
 4.70789e-07
 4.11860e-07
 3.63277e-07
 3.22763e-07
 2.88633e-07
 2.59618e-07
 2.34748e-07
 2.13273e-07
 1.94604e-07
 1.78274e-07
 1.63910e-07
 1.51208e-07
 1.39924e-07
 1.29853e-07
 1.18548e-06
 9.73744e-07
 8.12701e-07
 6.87635e-07
 5.88753e-07
 5.09344e-07
 4.44690e-07
 3.91403e-07
 3.47005e-07
 3.09647e-07
 2.77935e-07
 2.50798e-07
 2.27407e-07
 2.07108e-07
 1.89385e-07
 1.73823e-07
 1.60087e-07
 1.47906e-07
 1.37053e-07
 1.27345e-07
 1.00847e-06
 8.49758e-07
 7.23483e-07
 6.21914e-07
 5.39332e-07
 4.71495e-07
 4.15226e-07
 3.68129e-07
 3.28376e-07
 2.94557e-07
 2.65579e-07
 2.40581e-07
 2.18881e-07
 1.99935e-07
 1.83303e-07
 1.68631e-07
 1.55626e-07
 1.44049e-07
 1.33701e-07
 1.24416e-07
 8.43492e-07
 7.29814e-07
 6.34609e-07
 5.54901e-07
 4.87985e-07
 4.31566e-07
 3.83755e-07
 3.43014e-07
 3.08103e-07
 2.78022e-07
 2.51961e-07
 2.29265e-07
 2.09401e-07
 1.91932e-07
 1.76500e-07
 1.62810e-07
 1.50615e-07
 1.39710e-07
 1.29925e-07
 1.21113e-07
 6.97484e-07
 6.19501e-07
 5.50310e-07
 4.89722e-07
 4.37003e-07
 3.91241e-07
 3.51517e-07
 3.16980e-07
 2.86878e-07
 2.60562e-07
 2.37478e-07
 2.17157e-07
 1.99204e-07
 1.83286e-07
 1.69122e-07
 1.56476e-07
 1.45147e-07
 1.34965e-07
 1.25786e-07
 1.17486e-07
 5.72876e-07
 5.21717e-07
 4.73222e-07
 4.28561e-07
 3.88123e-07
 3.51872e-07
 3.19558e-07
 2.90833e-07
 2.65323e-07
 2.42662e-07
 2.22508e-07
 2.04554e-07
 1.88526e-07
 1.74184e-07
 1.61319e-07
 1.49750e-07
 1.39320e-07
 1.29892e-07
 1.21350e-07
 1.13590e-07
 4.69122e-07
 4.37303e-07
 4.04623e-07
 3.72722e-07
 3.42514e-07
 3.14450e-07
 2.88692e-07
 2.65233e-07
 2.43969e-07
 2.24746e-07
 2.07391e-07
 1.91727e-07
 1.77584e-07
 1.64801e-07
 1.53233e-07
 1.42748e-07
 1.33229e-07
 1.24571e-07
 1.16681e-07
 1.09478e-07
 3.84088e-07
 3.65762e-07
 3.44786e-07
 3.22791e-07
 3.00848e-07
 2.79623e-07
 2.59502e-07
 2.40681e-07
 2.23237e-07
 2.07165e-07
 1.92417e-07
 1.78917e-07
 1.66576e-07
 1.55300e-07
 1.44998e-07
 1.35581e-07
 1.26966e-07
 1.19077e-07
 1.11843e-07
 1.05203e-07
