scalar
part
         1
quad4
 5.97076e-07
 5.49221e-07
 5.02243e-07
 4.57774e-07
 4.16641e-07
 3.79149e-07
 3.45291e-07
 3.14888e-07
 2.87671e-07
 2.63342e-07
 2.41598e-07
 2.22153e-07
 2.04741e-07
 1.89124e-07
 1.75091e-07
 1.62455e-07
 1.51052e-07
 1.40739e-07
 1.31389e-07
 1.22895e-07
 7.05557e-07
 6.36640e-07
 5.72410e-07
 5.14081e-07
 4.61927e-07
 4.15713e-07
 3.74956e-07
 3.39086e-07
 3.07524e-07
 2.79725e-07
 2.55196e-07
 2.33503e-07
 2.14267e-07
 1.97163e-07
 1.81909e-07
 1.68266e-07
 1.56027e-07
 1.45017e-07
 1.35084e-07
 1.26099e-07
 8.33407e-07
 7.35966e-07
 6.49646e-07
 5.74390e-07
 5.09303e-07
 4.53193e-07
 4.04833e-07
 3.63087e-07
 3.26951e-07
 2.95567e-07
 2.68207e-07
 2.44262e-07
 2.23222e-07
 2.04661e-07
 1.88225e-07
 1.73614e-07
 1.60580e-07
 1.48912e-07
 1.38432e-07
 1.28988e-07
 9.80699e-07
 8.45845e-07
 7.32221e-07
 6.37040e-07
 5.57337e-07
 4.90417e-07
 4.33985e-07
 3.86148e-07
 3.45371e-07
 3.10413e-07
 2.80274e-07
 2.54148e-07
 2.31382e-07
 2.11443e-07
 1.93897e-07
 1.78388e-07
 1.64620e-07
 1.52349e-07
 1.41371e-07
 1.31513e-07
 1.14434e-06
 9.62684e-07
 8.16939e-07
 6.99451e-07
 6.04032e-07
 5.25866e-07
 4.61264e-07
 4.07406e-07
 3.62129e-07
 3.23764e-07
 2.91015e-07
 2.62868e-07
 2.38519e-07
 2.17329e-07
 1.98786e-07
 1.82476e-07
 1.68058e-07
 1.55257e-07
 1.43843e-07
 1.33625e-07
 1.31622e-06
 1.07991e-06
 8.98913e-07
 7.58101e-07
 6.46870e-07
 5.57740e-07
 4.85377e-07
 4.25921e-07
 3.76536e-07
 3.35110e-07
 3.00049e-07
 2.70131e-07
 2.44412e-07
 2.22150e-07
 2.02760e-07
 1.85773e-07
 1.70812e-07
 1.57571e-07
 1.45797e-07
 1.35284e-07
 1.48174e-06
 1.18777e-06
 9.71712e-07
 8.08732e-07
 6.82999e-07
 5.84099e-07
 5.04981e-07
 4.40748e-07
 3.87918e-07
 3.43963e-07
 3.07016e-07
 2.75673e-07
 2.48861e-07
 2.25753e-07
 2.05700e-07
 1.88189e-07
 1.72811e-07
 1.59234e-07
 1.47188e-07
 1.36453e-07
 1.62030e-06
 1.27420e-06
 1.02809e-06
 8.46864e-07
 7.09567e-07
 6.03076e-07
 5.18825e-07
 4.51032e-07
 3.95677e-07
 3.49899e-07
 3.11611e-07
 2.79267e-07
 2.51699e-07
 2.28012e-07
 2.07512e-07
 1.89651e-07
 1.73997e-07
 1.60201e-07
 1.47981e-07
 1.37104e-07
 1.70930e-06
 1.32722e-06
 1.06134e-06
 8.68547e-07
 7.24158e-07
 6.13142e-07
 5.25913e-07
 4.56106e-07
 3.99359e-07
 3.52598e-07
 3.13607e-07
 2.80751e-07
 2.52807e-07
 2.28839e-07
 2.08128e-07
 1.90109e-07
 1.74333e-07
 1.60444e-07
 1.48151e-07
 1.37220e-07
 1.73135e-06
 1.33824e-06
 1.06687e-06
 8.71195e-07
 7.25237e-07
 6.13354e-07
 5.25643e-07
 4.55576e-07
 3.98698e-07
 3.51881e-07
 3.12878e-07
 2.80036e-07
 2.52119e-07
 2.28188e-07
 2.07515e-07
 1.89535e-07
 1.73799e-07
 1.59947e-07
 1.47689e-07
 1.36790e-07
 1.68126e-06
 1.30487e-06
 1.04350e-06
 8.54185e-07
 7.12466e-07
 6.03519e-07
 5.17907e-07
 4.49381e-07
 3.93659e-07
 3.47728e-07
 3.09414e-07
 2.77116e-07
 2.49636e-07
 2.26057e-07
 2.05674e-07
 1.87934e-07
 1.72396e-07
 1.58712e-07
 1.46596e-07
 1.35819e-07
 1.56796e-06
 1.23167e-06
 9.93757e-07
 8.19008e-07
 6.86771e-07
 5.84238e-07
 5.03107e-07
 4.37798e-07
 3.84440e-07
 3.40281e-07
 3.03320e-07
 2.72072e-07
 2.45417e-07
 2.22496e-07
 2.02642e-07
 1.85332e-07
 1.70150e-07
 1.56759e-07
 1.44888e-07
 1.34317e-07
 1.41033e-06
 1.12850e-06
 9.23152e-07
 7.68921e-07
 6.50165e-07
 5.56805e-07
 4.82103e-07
 4.21414e-07
 3.71450e-07
 3.29835e-07
 2.94811e-07
 2.65062e-07
 2.39582e-07
 2.17594e-07
 1.98490e-07
 1.81788e-07
 1.67102e-07
 1.54122e-07
 1.42594e-07
 1.32309e-07
 1.23044e-06
 1.00755e-06
 8.38783e-07
 7.08241e-07
 6.05377e-07
 5.23001e-07
 4.56089e-07
 4.01052e-07
 3.55270e-07
 3.16804e-07
 2.84190e-07
 2.56311e-07
 2.32301e-07
 2.11482e-07
 1.93317e-07
 1.77378e-07
 1.63316e-07
 1.50852e-07
 1.39752e-07
 1.29826e-07
 1.04787e-06
 8.80521e-07
 7.47870e-07
 6.41556e-07
 5.55400e-07
 4.84830e-07
 4.26440e-07
 3.77672e-07
 3.36585e-07
 3.01687e-07
 2.71825e-07
 2.46094e-07
 2.23782e-07
 2.04320e-07
 1.87249e-07
 1.72199e-07
 1.58869e-07
 1.47009e-07
 1.36413e-07
 1.26909e-07
 8.76625e-07
 7.56755e-07
 6.56629e-07
 5.73052e-07
 5.03096e-07
 4.44277e-07
 3.94555e-07
 3.52279e-07
 3.16123e-07
 2.85021e-07
 2.58116e-07
 2.34716e-07
 2.14259e-07
 1.96287e-07
 1.80425e-07
 1.66364e-07
 1.53848e-07
 1.42664e-07
 1.32633e-07
 1.23605e-07
 7.24650e-07
 6.42479e-07
 5.69687e-07
 5.06093e-07
 4.50901e-07
 4.03114e-07
 3.61730e-07
 3.25828e-07
 2.94598e-07
 2.67343e-07
 2.43473e-07
 2.22489e-07
 2.03973e-07
 1.87573e-07
 1.72995e-07
 1.59991e-07
 1.48350e-07
 1.37895e-07
 1.28476e-07
 1.19964e-07
 5.94845e-07
 5.40986e-07
 4.89967e-07
 4.43062e-07
 4.00684e-07
 3.62781e-07
 3.29069e-07
 2.99165e-07
 2.72659e-07
 2.49154e-07
 2.28284e-07
 2.09717e-07
 1.93164e-07
 1.78369e-07
 1.65111e-07
 1.53201e-07
 1.42471e-07
 1.32781e-07
 1.24006e-07
 1.16041e-07
 4.86792e-07
 4.53310e-07
 4.18925e-07
 3.85403e-07
 3.53719e-07
 3.24344e-07
 2.97440e-07
 2.72987e-07
 2.50863e-07
 2.30898e-07
 2.12902e-07
 1.96684e-07
 1.82058e-07
 1.68856e-07
 1.56921e-07
 1.46115e-07
 1.36312e-07
 1.27403e-07
 1.19291e-07
 1.11890e-07
 3.98302e-07
 3.79006e-07
 3.56919e-07
 3.33786e-07
 3.10749e-07
 2.88510e-07
 2.67469e-07
 2.47828e-07
 2.29656e-07
 2.12944e-07
 1.97632e-07
 1.83637e-07
 1.70861e-07
 1.59202e-07
 1.48562e-07
 1.38846e-07
 1.29965e-07
 1.21840e-07
 1.14396e-07
 1.07567e-07
