scalar
part
         1
quad4
 5.56678e-07
 5.13761e-07
 4.71227e-07
 4.30677e-07
 3.92953e-07
 3.58401e-07
 3.27069e-07
 2.98831e-07
 2.73471e-07
 2.50736e-07
 2.30364e-07
 2.12101e-07
 1.95714e-07
 1.80987e-07
 1.67731e-07
 1.55774e-07
 1.44968e-07
 1.35180e-07
 1.26296e-07
 1.18215e-07
 6.59791e-07
 5.97260e-07
 5.38575e-07
 4.84982e-07
 4.36835e-07
 3.93994e-07
 3.56075e-07
 3.22595e-07
 2.93049e-07
 2.66957e-07
 2.43880e-07
 2.23427e-07
 2.05255e-07
 1.89068e-07
 1.74608e-07
 1.61656e-07
 1.50021e-07
 1.39541e-07
 1.30076e-07
 1.21503e-07
 7.81749e-07
 6.92523e-07
 6.13055e-07
 5.43450e-07
 4.83004e-07
 4.30705e-07
 3.85482e-07
 3.46328e-07
 3.12347e-07
 2.82764e-07
 2.56918e-07
 2.34253e-07
 2.14303e-07
 1.96675e-07
 1.81041e-07
 1.67125e-07
 1.54695e-07
 1.43555e-07
 1.33538e-07
 1.24503e-07
 9.22876e-07
 7.98459e-07
 6.93160e-07
 6.04593e-07
 5.30157e-07
 4.67452e-07
 4.14416e-07
 3.69338e-07
 3.30819e-07
 2.97725e-07
 2.69137e-07
 2.44311e-07
 2.22643e-07
 2.03638e-07
 1.86892e-07
 1.72071e-07
 1.58899e-07
 1.47148e-07
 1.36623e-07
 1.27165e-07
 1.08060e-06
 9.11903e-07
 7.76010e-07
 6.66054e-07
 5.76448e-07
 5.02820e-07
 4.41802e-07
 3.90806e-07
 3.47840e-07
 3.11362e-07
 2.80169e-07
 2.53315e-07
 2.30052e-07
 2.09782e-07
 1.92022e-07
 1.76383e-07
 1.62546e-07
 1.50248e-07
 1.39274e-07
 1.29443e-07
 1.24772e-06
 1.02690e-06
 8.57119e-07
 7.24562e-07
 6.19518e-07
 5.35107e-07
 4.66403e-07
 4.09828e-07
 3.62743e-07
 3.23179e-07
 2.89640e-07
 2.60982e-07
 2.36314e-07
 2.14938e-07
 1.96300e-07
 1.79957e-07
 1.65552e-07
 1.52792e-07
 1.41438e-07
 1.31293e-07
 1.41093e-06
 1.13447e-06
 9.30491e-07
 7.76106e-07
 6.56652e-07
 5.62449e-07
 4.86922e-07
 4.25485e-07
 3.74868e-07
 3.32693e-07
 2.97194e-07
 2.67044e-07
 2.41225e-07
 2.18952e-07
 1.99608e-07
 1.82702e-07
 1.67845e-07
 1.54719e-07
 1.43067e-07
 1.32678e-07
 1.55121e-06
 1.22328e-06
 9.89245e-07
 8.16378e-07
 6.85078e-07
 5.83017e-07
 5.02121e-07
 4.36923e-07
 3.83615e-07
 3.39476e-07
 3.02520e-07
 2.71272e-07
 2.44616e-07
 2.21695e-07
 2.01845e-07
 1.84541e-07
 1.69366e-07
 1.55985e-07
 1.44126e-07
 1.33568e-07
 1.64713e-06
 1.28181e-06
 1.02681e-06
 8.41463e-07
 7.02373e-07
 5.95258e-07
 5.10978e-07
 4.43453e-07
 3.88507e-07
 3.43191e-07
 3.05376e-07
 2.73491e-07
 2.46355e-07
 2.23070e-07
 2.02939e-07
 1.85416e-07
 1.70070e-07
 1.56554e-07
 1.44588e-07
 1.33944e-07
 1.68135e-06
 1.30126e-06
 1.03841e-06
 8.48614e-07
 7.06882e-07
 5.98139e-07
 5.12826e-07
 4.44631e-07
 3.89243e-07
 3.43631e-07
 3.05616e-07
 2.73595e-07
 2.46367e-07
 2.23020e-07
 2.02847e-07
 1.85297e-07
 1.69934e-07
 1.56408e-07
 1.44437e-07
 1.33791e-07
 1.64699e-06
 1.27830e-06
 1.02229e-06
 8.36854e-07
 6.98037e-07
 5.91317e-07
 5.07453e-07
 4.40323e-07
 3.85735e-07
 3.40737e-07
 3.03200e-07
 2.71557e-07
 2.44633e-07
 2.21531e-07
 2.01560e-07
 1.84176e-07
 1.68952e-07
 1.55543e-07
 1.43671e-07
 1.33110e-07
 1.55008e-06
 1.21602e-06
 9.80169e-07
 8.07205e-07
 6.76473e-07
 5.75204e-07
 4.95135e-07
 4.30719e-07
 3.78119e-07
 3.34608e-07
 2.98202e-07
 2.67433e-07
 2.41194e-07
 2.18637e-07
 1.99103e-07
 1.82075e-07
 1.67142e-07
 1.53974e-07
 1.42302e-07
 1.31910e-07
 1.40682e-06
 1.12285e-06
 9.16756e-07
 7.62440e-07
 6.43905e-07
 5.50900e-07
 4.76601e-07
 4.16317e-07
 3.66743e-07
 3.25491e-07
 2.90801e-07
 2.61356e-07
 2.36152e-07
 2.14414e-07
 1.95536e-07
 1.79039e-07
 1.64539e-07
 1.51728e-07
 1.40353e-07
 1.30208e-07
 1.23777e-06
 1.01004e-06
 8.38556e-07
 7.06496e-07
 6.02807e-07
 5.20014e-07
 4.52926e-07
 3.97855e-07
 3.52124e-07
 3.13757e-07
 2.81268e-07
 2.53525e-07
 2.29656e-07
 2.08977e-07
 1.90948e-07
 1.75137e-07
 1.61199e-07
 1.48849e-07
 1.37858e-07
 1.28034e-07
 1.06236e-06
 8.88985e-07
 7.52501e-07
 6.43736e-07
 5.56007e-07
 4.84428e-07
 4.25396e-07
 3.76228e-07
 3.34899e-07
 2.99866e-07
 2.69940e-07
 2.44194e-07
 2.21898e-07
 2.02471e-07
 1.85450e-07
 1.70458e-07
 1.57190e-07
 1.45394e-07
 1.34862e-07
 1.25423e-07
 8.95219e-07
 7.69176e-07
 6.64792e-07
 5.78277e-07
 5.06289e-07
 4.46058e-07
 3.95352e-07
 3.52391e-07
 3.15758e-07
 2.84327e-07
 2.57197e-07
 2.33647e-07
 2.13094e-07
 1.95066e-07
 1.79175e-07
 1.65105e-07
 1.52595e-07
 1.41427e-07
 1.31419e-07
 1.22419e-07
 7.45134e-07
 6.57222e-07
 5.80210e-07
 5.13532e-07
 4.56089e-07
 4.06655e-07
 3.64064e-07
 3.27275e-07
 2.95392e-07
 2.67655e-07
 2.43429e-07
 2.22184e-07
 2.03477e-07
 1.86939e-07
 1.72263e-07
 1.59190e-07
 1.47503e-07
 1.37020e-07
 1.27586e-07
 1.19069e-07
 6.15769e-07
 5.56847e-07
 5.01907e-07
 4.51997e-07
 4.07327e-07
 3.67679e-07
 3.32639e-07
 3.01721e-07
 2.74440e-07
 2.50342e-07
 2.29016e-07
 2.10100e-07
 1.93277e-07
 1.78276e-07
 1.64861e-07
 1.52829e-07
 1.42009e-07
 1.32251e-07
 1.23426e-07
 1.15425e-07
 5.07274e-07
 4.69462e-07
 4.31573e-07
 3.95254e-07
 3.61357e-07
 3.30238e-07
 3.01964e-07
 2.76433e-07
 2.53461e-07
 2.32829e-07
 2.14306e-07
 1.97671e-07
 1.82716e-07
 1.69252e-07
 1.57110e-07
 1.46139e-07
 1.36207e-07
 1.27196e-07
 1.19003e-07
 1.11539e-07
 4.17851e-07
 3.94914e-07
 3.69768e-07
 3.44109e-07
 3.19007e-07
 2.95092e-07
 2.72697e-07
 2.51963e-07
 2.32911e-07
 2.15489e-07
 1.99605e-07
 1.85147e-07
 1.71996e-07
 1.60034e-07
 1.49147e-07
 1.39231e-07
 1.30188e-07
 1.21931e-07
 1.14380e-07
 1.07464e-07
