scalar
part
         1
quad4
 3.47110e-07
 3.34339e-07
 3.18128e-07
 3.00165e-07
 2.81606e-07
 2.63208e-07
 2.45445e-07
 2.28593e-07
 2.12795e-07
 1.98104e-07
 1.84519e-07
 1.72002e-07
 1.60495e-07
 1.49930e-07
 1.40237e-07
 1.31344e-07
 1.23181e-07
 1.15684e-07
 1.08792e-07
 1.02449e-07
 4.28565e-07
 4.03589e-07
 3.76581e-07
 3.49333e-07
 3.22924e-07
 2.97959e-07
 2.74733e-07
 2.53349e-07
 2.33794e-07
 2.15985e-07
 1.99806e-07
 1.85125e-07
 1.71808e-07
 1.59724e-07
 1.48750e-07
 1.38773e-07
 1.29690e-07
 1.21407e-07
 1.13843e-07
 1.06923e-07
 5.28859e-07
 4.86041e-07
 4.44192e-07
 4.04800e-07
 3.68540e-07
 3.35613e-07
 3.05956e-07
 2.79370e-07
 2.55594e-07
 2.34348e-07
 2.15357e-07
 1.98365e-07
 1.83138e-07
 1.69469e-07
 1.57172e-07
 1.46085e-07
 1.36067e-07
 1.26993e-07
 1.18755e-07
 1.11259e-07
 6.50544e-07
 5.82525e-07
 5.20933e-07
 4.66152e-07
 4.17898e-07
 3.75598e-07
 3.38583e-07
 3.06187e-07
 2.77794e-07
 2.52855e-07
 2.30889e-07
 2.11485e-07
 1.94290e-07
 1.79003e-07
 1.65369e-07
 1.53169e-07
 1.42220e-07
 1.32362e-07
 1.23462e-07
 1.15403e-07
 7.94819e-07
 6.92652e-07
 6.05821e-07
 5.32270e-07
 4.69943e-07
 4.16994e-07
 3.71840e-07
 3.33164e-07
 2.99878e-07
 2.71088e-07
 2.46067e-07
 2.24216e-07
 2.05044e-07
 1.88149e-07
 1.73195e-07
 1.59906e-07
 1.48051e-07
 1.37435e-07
 1.27897e-07
 1.19298e-07
 9.60165e-07
 8.14072e-07
 6.96533e-07
 6.01146e-07
 5.23035e-07
 4.58495e-07
 4.04706e-07
 3.59505e-07
 3.21223e-07
 2.88564e-07
 2.60509e-07
 2.36255e-07
 2.15162e-07
 1.96715e-07
 1.80498e-07
 1.66173e-07
 1.53460e-07
 1.42130e-07
 1.31994e-07
 1.22890e-07
 1.14073e-06
 9.41731e-07
 7.89094e-07
 6.69769e-07
 5.74926e-07
 4.98435e-07
 4.35938e-07
 3.84279e-07
 3.41130e-07
 3.04747e-07
 2.73807e-07
 2.47288e-07
 2.24398e-07
 2.04509e-07
 1.87125e-07
 1.71846e-07
 1.58348e-07
 1.46367e-07
 1.35686e-07
 1.26124e-07
 1.32490e-06
 1.06743e-06
 8.77812e-07
 7.34189e-07
 6.22858e-07
 5.34863e-07
 4.64142e-07
 4.06476e-07
 3.58856e-07
 3.19089e-07
 2.85546e-07
 2.56999e-07
 2.32508e-07
 2.11342e-07
 1.92927e-07
 1.76809e-07
 1.62622e-07
 1.50070e-07
 1.38913e-07
 1.28951e-07
 1.49493e-06
 1.18007e-06
 9.55626e-07
 7.89822e-07
 6.63789e-07
 5.65717e-07
 4.87891e-07
 4.25091e-07
 3.73680e-07
 3.31061e-07
 2.95336e-07
 2.65095e-07
 2.39270e-07
 2.17041e-07
 1.97771e-07
 1.80956e-07
 1.66198e-07
 1.53173e-07
 1.41621e-07
 1.31327e-07
 1.62849e-06
 1.26697e-06
 1.01503e-06
 8.32042e-07
 6.94767e-07
 5.89057e-07
 5.05874e-07
 4.39215e-07
 3.84959e-07
 3.40200e-07
 3.02836e-07
 2.71321e-07
 2.44491e-07
 2.21460e-07
 2.01542e-07
 1.84199e-07
 1.69005e-07
 1.55618e-07
 1.43763e-07
 1.33214e-07
 1.70358e-06
 1.31657e-06
 1.04951e-06
 8.56987e-07
 7.13397e-07
 6.03339e-07
 5.17064e-07
 4.48145e-07
 3.92200e-07
 3.46152e-07
 3.07789e-07
 2.75486e-07
 2.48027e-07
 2.24488e-07
 2.04154e-07
 1.86468e-07
 1.70989e-07
 1.57363e-07
 1.45306e-07
 1.34585e-07
 1.70632e-06
 1.32183e-06
 1.05521e-06
 8.62390e-07
 7.18279e-07
 6.07660e-07
 5.20858e-07
 4.51467e-07
 3.95111e-07
 3.48708e-07
 3.10039e-07
 2.77474e-07
 2.49790e-07
 2.26056e-07
 2.05554e-07
 1.87723e-07
 1.72117e-07
 1.58381e-07
 1.46227e-07
 1.35420e-07
 1.63754e-06
 1.28287e-06
 1.03203e-06
 8.48129e-07
 7.09294e-07
 6.01918e-07
 5.17169e-07
 4.49110e-07
 3.93632e-07
 3.47817e-07
 3.09547e-07
 2.77252e-07
 2.49751e-07
 2.26142e-07
 2.05724e-07
 1.87948e-07
 1.72376e-07
 1.58660e-07
 1.46516e-07
 1.35713e-07
 1.51261e-06
 1.20696e-06
 9.83737e-07
 8.16249e-07
 6.87615e-07
 5.86814e-07
 5.06431e-07
 4.41348e-07
 3.87943e-07
 3.43600e-07
 3.06391e-07
 2.74873e-07
 2.47949e-07
 2.24772e-07
 2.04681e-07
 1.87154e-07
 1.71775e-07
 1.58207e-07
 1.46178e-07
 1.35466e-07
 1.35448e-06
 1.10589e-06
 9.16733e-07
 7.70434e-07
 6.55452e-07
 5.63719e-07
 4.89523e-07
 4.28760e-07
 3.78433e-07
 3.36323e-07
 3.00760e-07
 2.70473e-07
 2.44481e-07
 2.22017e-07
 2.02478e-07
 1.85382e-07
 1.70342e-07
 1.57044e-07
 1.45231e-07
 1.34692e-07
 1.18528e-06
 9.92250e-07
 8.38417e-07
 7.15162e-07
 6.15600e-07
 5.34432e-07
 4.67632e-07
 4.12148e-07
 3.65656e-07
 3.26376e-07
 2.92932e-07
 2.64252e-07
 2.39493e-07
 2.17987e-07
 1.99198e-07
 1.82695e-07
 1.68127e-07
 1.55209e-07
 1.43703e-07
 1.33414e-07
 1.02132e-06
 8.76649e-07
 7.55606e-07
 6.54856e-07
 5.70974e-07
 5.00906e-07
 4.42090e-07
 3.92436e-07
 3.50263e-07
 3.14225e-07
 2.83246e-07
 2.56460e-07
 2.33174e-07
 2.12822e-07
 1.94947e-07
 1.79174e-07
 1.65194e-07
 1.52752e-07
 1.41635e-07
 1.31664e-07
 8.72040e-07
 7.66452e-07
 6.73644e-07
 5.93288e-07
 5.24219e-07
 4.65004e-07
 4.14219e-07
 3.70573e-07
 3.32943e-07
 3.00376e-07
 2.72076e-07
 2.47379e-07
 2.25734e-07
 2.06685e-07
 1.89852e-07
 1.74918e-07
 1.61620e-07
 1.49734e-07
 1.39074e-07
 1.29482e-07
 7.41420e-07
 6.65884e-07
 5.96138e-07
 5.33297e-07
 4.77490e-07
 4.28336e-07
 3.85218e-07
 3.47452e-07
 3.14363e-07
 2.85331e-07
 2.59804e-07
 2.37298e-07
 2.17399e-07
 1.99751e-07
 1.84049e-07
 1.70035e-07
 1.57489e-07
 1.46222e-07
 1.36075e-07
 1.26910e-07
 6.29918e-07
 5.76736e-07
 5.25147e-07
 4.76771e-07
 4.32372e-07
 3.92174e-07
 3.56087e-07
 3.23851e-07
 2.95128e-07
 2.69560e-07
 2.46795e-07
 2.26505e-07
 2.08394e-07
 1.92196e-07
 1.77678e-07
 1.64635e-07
 1.52891e-07
 1.42290e-07
 1.32698e-07
 1.23998e-07
