# f [Hz] vs PSD(f) [PaPa_Hz]
# Lower frequency: 2.50000000e+01
# Upper frequency: 1.00000000e+04
# Window model  : Hanning
# Window number : 3
# Window samples: 4096
# Window overlap %: 5.00000000e+01
# dBRef         : 2.00000000e-05
# f             	PSD(f)          
2.50000000e+01	1.36204332e-24
2.50244141e+01	3.19367382e-24
2.50488281e+01	3.82728499e-24
2.50732422e+01	2.50018273e-24
2.50976562e+01	9.40179140e-24
2.51220703e+01	1.00986131e-23
2.51464844e+01	7.14774343e-24
2.51708984e+01	1.59596225e-23
2.51953125e+01	1.19498929e-23
2.52197266e+01	4.50160831e-24
2.52441406e+01	3.18465792e-24
2.52685547e+01	5.54275777e-24
2.52929688e+01	3.99974067e-24
2.53173828e+01	1.70358108e-24
2.53417969e+01	3.02557900e-24
2.53662109e+01	2.25099222e-23
2.53906250e+01	3.33760028e-23
2.54150391e+01	1.01622693e-23
2.54394531e+01	4.46920445e-24
2.54638672e+01	3.65334293e-24
2.54882812e+01	4.26858134e-24
2.55126953e+01	3.74398686e-24
2.55371094e+01	3.67631047e-24
2.55615234e+01	6.64571279e-24
2.55859375e+01	6.61130959e-24
2.56103516e+01	8.08492407e-24
2.56347656e+01	3.40239369e-24
2.56591797e+01	3.26467805e-24
2.56835938e+01	3.90975597e-24
2.57080078e+01	7.13310344e-24
2.57324219e+01	1.00189489e-23
2.57568359e+01	1.12178773e-23
2.57812500e+01	1.94423972e-23
2.58056641e+01	1.73721505e-23
2.58300781e+01	1.19477320e-23
2.58544922e+01	8.77113447e-24
2.58789062e+01	6.25112994e-24
2.59033203e+01	4.69839684e-24
2.59277344e+01	3.15688089e-24
2.59521484e+01	1.68394395e-24
2.59765625e+01	7.88106911e-25
2.60009766e+01	5.06147001e-25
2.60253906e+01	5.96029847e-24
2.60498047e+01	1.87375324e-23
2.60742188e+01	1.15814677e-23
2.60986328e+01	1.20447216e-24
2.61230469e+01	2.50266333e-24
2.61474609e+01	3.67108113e-24
2.61718750e+01	2.40958181e-24
2.61962891e+01	1.82000943e-24
2.62207031e+01	4.54910309e-24
2.62451172e+01	9.96388007e-24
2.62695312e+01	1.86232603e-23
2.62939453e+01	1.35867640e-23
2.63183594e+01	3.90877522e-24
2.63427734e+01	2.31527781e-24
2.63671875e+01	3.30814397e-24
2.63916016e+01	3.35181175e-24
2.64160156e+01	6.99389223e-24
2.64404297e+01	1.36916231e-23
2.64648438e+01	6.50926939e-24
2.64892578e+01	1.96997243e-23
2.65136719e+01	2.32855055e-23
2.65380859e+01	6.17932941e-24
2.65625000e+01	4.98467354e-24
2.65869141e+01	6.33550382e-24
2.66113281e+01	7.66057621e-24
2.66357422e+01	2.71016022e-24
2.66601562e+01	1.36520567e-24
2.66845703e+01	5.88531432e-24
2.67089844e+01	3.59415693e-23
2.67333984e+01	1.98384310e-23
2.67578125e+01	1.00971921e-24
2.67822266e+01	1.29846349e-24
2.68066406e+01	4.68962810e-24
2.68310547e+01	2.59132295e-24
2.68554688e+01	1.25425265e-24
2.68798828e+01	3.28805910e-24
2.69042969e+01	2.46831892e-23
2.69287109e+01	3.57866553e-23
2.69531250e+01	4.30264415e-24
2.69775391e+01	3.89468492e-24
2.70019531e+01	3.05700986e-24
2.70263672e+01	2.66283345e-24
2.70507812e+01	6.45807118e-24
2.70751953e+01	9.23542379e-24
2.70996094e+01	1.68311977e-23
2.71240234e+01	6.04346229e-24
2.71484375e+01	2.86364497e-23
2.71728516e+01	2.18394221e-23
2.71972656e+01	4.16678850e-24
2.72216797e+01	4.20884941e-24
2.72460938e+01	6.39187218e-24
2.72705078e+01	3.38194463e-24
2.72949219e+01	2.46881979e-24
2.73193359e+01	5.85550142e-24
2.73437500e+01	7.95927654e-24
2.73681641e+01	8.21197750e-24
2.73925781e+01	5.35350939e-24
2.74169922e+01	3.26913032e-24
2.74414062e+01	3.35556033e-24
2.74658203e+01	4.05616591e-24
2.74902344e+01	4.39969312e-24
2.75146484e+01	4.14435273e-24
2.75390625e+01	8.15537185e-24
2.75634766e+01	4.98227993e-24
2.75878906e+01	2.45271904e-23
2.76123047e+01	1.73286642e-23
2.76367188e+01	1.97494370e-24
2.76611328e+01	1.57794571e-24
2.76855469e+01	3.63370941e-24
2.77099609e+01	3.66465478e-24
2.77343750e+01	2.29501346e-24
2.77587891e+01	3.77245294e-24
2.77832031e+01	4.83852702e-24
2.78076172e+01	1.30137716e-23
2.78320312e+01	1.50865742e-23
2.78564453e+01	5.02409789e-24
2.78808594e+01	6.30707964e-24
2.79052734e+01	6.35793974e-24
2.79296875e+01	5.24412312e-24
2.79541016e+01	5.96229173e-24
2.79785156e+01	8.46408269e-24
2.80029297e+01	1.16688729e-23
2.80273438e+01	9.37285089e-24
2.80517578e+01	1.27000399e-23
2.80761719e+01	4.33282053e-24
2.81005859e+01	1.85620537e-24
2.81250000e+01	8.38732854e-24
2.81494141e+01	6.33028613e-24
2.81738281e+01	2.32130356e-24
2.81982422e+01	7.63101572e-25
2.82226562e+01	1.13521102e-24
2.82470703e+01	7.07503704e-24
2.82714844e+01	5.74710824e-24
2.82958984e+01	2.44398876e-24
2.83203125e+01	1.71497390e-24
2.83447266e+01	3.69184436e-24
2.83691406e+01	1.22411691e-24
2.83935547e+01	3.39815636e-24
2.84179688e+01	5.43505114e-24
2.84423828e+01	1.96181155e-24
2.84667969e+01	1.30790222e-23
2.84912109e+01	2.19763324e-23
2.85156250e+01	8.57230913e-24
2.85400391e+01	3.99559814e-24
2.85644531e+01	2.95633496e-24
2.85888672e+01	2.27420533e-24
2.86132812e+01	4.06617028e-24
2.86376953e+01	7.44782196e-24
2.86621094e+01	8.04154344e-24
2.86865234e+01	1.67211555e-23
2.87109375e+01	1.24671034e-23
2.87353516e+01	1.49027686e-24
2.87597656e+01	1.42574815e-24
2.87841797e+01	4.11303515e-24
2.88085938e+01	3.78319277e-24
2.88330078e+01	4.24194978e-24
2.88574219e+01	5.63671426e-24
2.88818359e+01	3.22300914e-24
2.89062500e+01	1.59811409e-24
2.89306641e+01	2.05753542e-24
2.89550781e+01	1.04720179e-24
2.89794922e+01	2.17269153e-24
2.90039062e+01	8.27798304e-24
2.90283203e+01	6.51815333e-24
2.90527344e+01	2.01353852e-24
2.90771484e+01	2.08440843e-24
2.91015625e+01	2.61128646e-24
2.91259766e+01	3.48629385e-24
2.91503906e+01	2.35266393e-24
2.91748047e+01	9.57875513e-25
2.91992188e+01	9.46219386e-25
2.92236328e+01	1.81033296e-24
2.92480469e+01	3.33359945e-24
2.92724609e+01	1.51637116e-24
2.92968750e+01	1.28394335e-24
2.93212891e+01	5.00959902e-24
2.93457031e+01	7.51080027e-24
2.93701172e+01	5.50036424e-24
2.93945312e+01	1.82769896e-24
2.94189453e+01	1.08483009e-24
2.94433594e+01	1.29589214e-24
2.94677734e+01	1.51160904e-24
2.94921875e+01	5.69433555e-25
2.95166016e+01	2.44942427e-24
2.95410156e+01	5.33326999e-24
2.95654297e+01	2.28526542e-24
2.95898438e+01	4.10983415e-24
2.96142578e+01	2.04105002e-24
2.96386719e+01	1.91047633e-24
2.96630859e+01	2.26313677e-24
2.96875000e+01	3.45407859e-24
2.97119141e+01	4.41477200e-24
2.97363281e+01	3.48205840e-24
2.97607422e+01	1.03322710e-24
2.97851562e+01	1.49447825e-24
2.98095703e+01	2.69010178e-24
2.98339844e+01	2.74217009e-24
2.98583984e+01	1.26767290e-24
2.98828125e+01	1.09134514e-24
2.99072266e+01	4.38211493e-24
2.99316406e+01	6.89244136e-24
2.99560547e+01	4.22221664e-24
2.99804688e+01	2.50792964e-24
3.00048828e+01	1.28433450e-23
3.00292969e+01	9.94527756e-24
3.00537109e+01	2.12405996e-24
3.00781250e+01	4.60531612e-24
3.01025391e+01	6.50780088e-24
3.01269531e+01	8.09729114e-24
3.01513672e+01	3.63727542e-24
3.01757812e+01	5.22974995e-24
3.02001953e+01	3.09023117e-24
3.02246094e+01	3.09839726e-24
3.02490234e+01	1.75376206e-24
3.02734375e+01	7.49926029e-25
3.02978516e+01	1.14191665e-24
3.03222656e+01	1.22724306e-24
3.03466797e+01	1.05815993e-24
3.03710938e+01	2.77136377e-24
3.03955078e+01	3.25959258e-24
3.04199219e+01	3.23844441e-24
3.04443359e+01	8.68265762e-24
3.04687500e+01	1.13015236e-23
3.04931641e+01	5.47300361e-24
3.05175781e+01	3.86720916e-24
3.05419922e+01	2.45070789e-24
3.05664062e+01	1.82398834e-24
3.05908203e+01	8.02542598e-25
3.06152344e+01	2.96599154e-24
3.06396484e+01	1.13070080e-24
3.06640625e+01	1.33082383e-23
3.06884766e+01	1.82514935e-23
3.07128906e+01	8.42633046e-24
3.07373047e+01	4.46693305e-24
3.07617188e+01	9.34342197e-25
3.07861328e+01	3.09807974e-24
3.08105469e+01	4.11306086e-24
3.08349609e+01	2.18056210e-24
3.08593750e+01	1.81861603e-24
3.08837891e+01	6.58992924e-24
3.09082031e+01	1.47388263e-23
3.09326172e+01	3.69884062e-24
3.09570312e+01	1.22041942e-24
3.09814453e+01	9.29290126e-25
3.10058594e+01	3.57220233e-24
3.10302734e+01	2.73117428e-24
3.10546875e+01	4.51116795e-24
3.10791016e+01	5.14861404e-24
3.11035156e+01	7.70697211e-24
3.11279297e+01	4.29339086e-24
3.11523438e+01	9.42927657e-25
3.11767578e+01	6.02406050e-25
3.12011719e+01	2.62543967e-24
3.12255859e+01	5.30216817e-24
3.12500000e+01	7.97134171e-24
3.12744141e+01	1.04444593e-23
3.12988281e+01	1.13044062e-23
3.13232422e+01	4.33839539e-24
3.13476562e+01	2.27986145e-24
3.13720703e+01	4.41017880e-24
3.13964844e+01	6.41235100e-24
3.14208984e+01	7.25360259e-24
3.14453125e+01	7.39278228e-24
3.14697266e+01	6.56513645e-24
3.14941406e+01	1.39577243e-23
3.15185547e+01	1.96580877e-23
3.15429688e+01	5.54526160e-24
3.15673828e+01	3.89462807e-24
3.15917969e+01	1.36707125e-24
3.16162109e+01	1.59728585e-24
3.16406250e+01	2.31071249e-24
3.16650391e+01	1.27552879e-24
3.16894531e+01	5.48653296e-25
3.17138672e+01	3.41763666e-24
3.17382812e+01	8.13806501e-24
3.17626953e+01	8.36149369e-24
3.17871094e+01	1.15898353e-23
3.18115234e+01	5.50045244e-24
3.18359375e+01	3.65404149e-24
3.18603516e+01	2.31681049e-24
3.18847656e+01	1.03178851e-23
3.19091797e+01	1.06306642e-23
3.19335938e+01	8.80403475e-24
3.19580078e+01	7.76032742e-24
3.19824219e+01	1.25242798e-23
3.20068359e+01	1.77083738e-23
3.20312500e+01	6.03906532e-24
3.20556641e+01	3.77908558e-24
3.20800781e+01	2.73761041e-24
3.21044922e+01	3.46525256e-24
3.21289062e+01	3.87817981e-24
3.21533203e+01	4.47222678e-24
3.21777344e+01	8.06877056e-24
3.22021484e+01	2.78461393e-23
3.22265625e+01	3.92747520e-23
3.22509766e+01	5.80435778e-24
3.22753906e+01	8.78820703e-24
3.22998047e+01	1.23027115e-23
3.23242188e+01	2.29059628e-23
3.23486328e+01	1.27889761e-23
3.23730469e+01	7.88971441e-24
3.23974609e+01	4.27852925e-23
3.24218750e+01	5.66801159e-23
3.24462891e+01	6.97143790e-23
3.24707031e+01	2.40363502e-23
3.24951172e+01	1.61966782e-23
3.25195312e+01	2.18576658e-23
3.25439453e+01	1.40796303e-23
3.25683594e+01	2.81943264e-23
3.25927734e+01	2.02312715e-23
3.26171875e+01	2.78073098e-23
3.26416016e+01	4.33504562e-23
3.26660156e+01	6.00476743e-23
3.26904297e+01	1.82098100e-23
3.27148438e+01	1.15221804e-23
3.27392578e+01	1.75432824e-23
3.27636719e+01	1.89124213e-23
3.27880859e+01	1.26715807e-23
3.28125000e+01	1.20924699e-23
3.28369141e+01	2.40661906e-23
3.28613281e+01	4.64069452e-23
3.28857422e+01	5.16918064e-23
3.29101562e+01	1.02091828e-23
3.29345703e+01	3.62480591e-24
3.29589844e+01	5.03573738e-24
3.29833984e+01	4.43303806e-24
3.30078125e+01	4.24157038e-24
3.30322266e+01	4.08275304e-24
3.30566406e+01	5.07421183e-24
3.30810547e+01	7.00685608e-24
3.31054688e+01	3.69695838e-24
3.31298828e+01	4.79974823e-24
3.31542969e+01	4.40530226e-24
3.31787109e+01	7.75044601e-24
3.32031250e+01	6.99817648e-24
3.32275391e+01	1.93382242e-24
3.32519531e+01	1.66055903e-23
3.32763672e+01	1.18311352e-23
3.33007812e+01	1.05516084e-23
3.33251953e+01	9.91791520e-24
3.33496094e+01	3.88956133e-24
3.33740234e+01	4.57530683e-24
3.33984375e+01	9.24186337e-24
3.34228516e+01	6.91893016e-24
3.34472656e+01	3.42359498e-24
3.34716797e+01	1.44389309e-23
3.34960938e+01	1.97734737e-23
3.35205078e+01	3.31211292e-23
3.35449219e+01	2.91969140e-23
3.35693359e+01	7.21672750e-24
3.35937500e+01	4.21562194e-24
3.36181641e+01	1.10697852e-23
3.36425781e+01	1.09209322e-23
3.36669922e+01	7.41641276e-24
3.36914062e+01	1.29057755e-23
3.37158203e+01	3.83972543e-23
3.37402344e+01	9.27074783e-23
3.37646484e+01	8.77548944e-23
3.37890625e+01	1.15787028e-23
3.38134766e+01	3.44710516e-24
3.38378906e+01	1.25357990e-23
3.38623047e+01	1.29491087e-23
3.38867188e+01	1.09687679e-23
3.39111328e+01	1.44349919e-23
3.39355469e+01	2.36221257e-23
3.39599609e+01	7.31578292e-23
3.39843750e+01	7.69242458e-23
3.40087891e+01	1.22496595e-23
3.40332031e+01	2.54856839e-24
3.40576172e+01	2.63353568e-24
3.40820312e+01	3.99265672e-24
3.41064453e+01	2.53888940e-24
3.41308594e+01	6.42157451e-24
3.41552734e+01	9.72013377e-24
3.41796875e+01	7.69636437e-24
3.42041016e+01	9.12793355e-24
3.42285156e+01	3.41778673e-24
3.42529297e+01	1.17557748e-23
3.42773438e+01	1.40553844e-23
3.43017578e+01	6.44115312e-24
3.43261719e+01	1.07756812e-23
3.43505859e+01	1.43740107e-23
3.43750000e+01	1.42937841e-23
3.43994141e+01	2.01751205e-23
3.44238281e+01	1.61489724e-23
3.44482422e+01	2.73960781e-24
3.44726562e+01	1.22650095e-24
3.44970703e+01	1.80665353e-24
3.45214844e+01	1.51672364e-24
3.45458984e+01	3.04010318e-24
3.45703125e+01	9.83146160e-24
3.45947266e+01	1.08733798e-23
3.46191406e+01	1.25067216e-23
3.46435547e+01	7.26722169e-24
3.46679688e+01	9.88406917e-25
3.46923828e+01	1.36110055e-24
3.47167969e+01	1.69996484e-24
3.47412109e+01	2.94101679e-25
3.47656250e+01	9.62254110e-25
3.47900391e+01	5.43573656e-24
3.48144531e+01	7.85562839e-24
3.48388672e+01	1.45188536e-24
3.48632812e+01	6.73475594e-24
3.48876953e+01	6.85615234e-24
3.49121094e+01	2.65899047e-24
3.49365234e+01	1.16102949e-23
3.49609375e+01	1.26169817e-23
3.49853516e+01	8.04279641e-24
3.50097656e+01	5.96844672e-24
3.50341797e+01	4.60682650e-24
3.50585938e+01	8.55880616e-24
3.50830078e+01	2.27501968e-24
3.51074219e+01	7.62363602e-25
3.51318359e+01	3.22795739e-24
3.51562500e+01	8.45247606e-24
3.51806641e+01	8.89036313e-24
3.52050781e+01	6.48987106e-24
3.52294922e+01	4.99179338e-24
3.52539062e+01	3.76367975e-24
3.52783203e+01	1.11459189e-23
3.53027344e+01	1.36924721e-23
3.53271484e+01	2.67539782e-24
3.53515625e+01	1.10500777e-24
3.53759766e+01	2.51722271e-24
3.54003906e+01	5.36033261e-24
3.54248047e+01	7.72747561e-24
3.54492188e+01	4.99451775e-24
3.54736328e+01	4.92351547e-24
3.54980469e+01	5.12349514e-24
3.55224609e+01	5.52322931e-24
3.55468750e+01	2.00966520e-24
3.55712891e+01	1.37268903e-24
3.55957031e+01	2.77337770e-24
3.56201172e+01	2.04812769e-24
3.56445312e+01	2.17209819e-24
3.56689453e+01	2.90284373e-24
3.56933594e+01	7.90243725e-24
3.57177734e+01	6.81617016e-24
3.57421875e+01	2.77684438e-24
3.57666016e+01	1.12121055e-24
3.57910156e+01	7.62182682e-25
3.58154297e+01	1.88591988e-24
3.58398438e+01	1.18927076e-24
3.58642578e+01	1.34835348e-24
3.58886719e+01	2.48080816e-24
3.59130859e+01	6.86390845e-24
3.59375000e+01	1.72708079e-23
3.59619141e+01	1.93069579e-23
3.59863281e+01	7.84219064e-24
3.60107422e+01	1.23961274e-24
3.60351562e+01	9.67513859e-25
3.60595703e+01	4.17763695e-24
3.60839844e+01	2.95348124e-24
3.61083984e+01	1.55138736e-24
3.61328125e+01	3.31279283e-24
3.61572266e+01	1.21097216e-23
3.61816406e+01	1.00835810e-23
3.62060547e+01	3.51424918e-24
3.62304688e+01	3.05298202e-24
3.62548828e+01	3.60978355e-24
3.62792969e+01	1.88105021e-24
3.63037109e+01	2.26296249e-24
3.63281250e+01	5.03440325e-24
3.63525391e+01	9.44249161e-24
3.63769531e+01	2.27332907e-23
3.64013672e+01	2.55526589e-23
3.64257812e+01	8.63094585e-24
3.64501953e+01	1.80935296e-24
3.64746094e+01	1.68032220e-24
3.64990234e+01	1.87608277e-24
3.65234375e+01	1.43556705e-24
3.65478516e+01	1.81944293e-24
3.65722656e+01	4.90755569e-24
3.65966797e+01	5.26722865e-24
3.66210938e+01	2.23088279e-24
3.66455078e+01	5.35017512e-24
3.66699219e+01	1.00325875e-23
3.66943359e+01	2.32952239e-24
3.67187500e+01	4.76006646e-24
3.67431641e+01	5.56957815e-24
3.67675781e+01	8.54379376e-24
3.67919922e+01	1.19085882e-23
3.68164062e+01	1.35672724e-23
3.68408203e+01	1.40848614e-23
3.68652344e+01	5.26343430e-24
3.68896484e+01	3.21575150e-24
3.69140625e+01	1.47401637e-24
3.69384766e+01	2.33583206e-24
3.69628906e+01	1.47447791e-24
3.69873047e+01	8.64514583e-24
3.70117188e+01	1.62902738e-23
3.70361328e+01	8.55460756e-24
3.70605469e+01	7.08311246e-24
3.70849609e+01	4.80184590e-24
3.71093750e+01	5.03476589e-24
3.71337891e+01	2.99556277e-24
3.71582031e+01	1.70143153e-24
3.71826172e+01	2.53139403e-24
3.72070312e+01	3.54680280e-24
3.72314453e+01	8.48648018e-24
3.72558594e+01	7.62602061e-24
3.72802734e+01	1.02364807e-23
3.73046875e+01	8.48828572e-24
3.73291016e+01	2.10579092e-24
3.73535156e+01	7.05712503e-25
3.73779297e+01	5.74919808e-24
3.74023438e+01	1.52569176e-24
3.74267578e+01	1.74533997e-24
3.74511719e+01	6.15078895e-24
3.74755859e+01	8.08087499e-24
3.75000000e+01	1.09026879e-23
3.75244141e+01	5.43808733e-24
3.75488281e+01	2.26745636e-24
3.75732422e+01	2.24319635e-24
3.75976562e+01	5.10622352e-24
3.76220703e+01	8.13395161e-24
3.76464844e+01	8.65920982e-24
3.76708984e+01	2.34763559e-24
3.76953125e+01	3.45660389e-24
3.77197266e+01	9.66197204e-24
3.77441406e+01	6.73744191e-24
3.77685547e+01	9.19951693e-24
3.77929688e+01	8.95172227e-24
3.78173828e+01	6.71201129e-24
3.78417969e+01	6.23519085e-24
3.78662109e+01	5.65771365e-24
3.78906250e+01	3.37487800e-24
3.79150391e+01	3.00011199e-24
3.79394531e+01	8.52550784e-24
3.79638672e+01	5.19407104e-24
3.79882812e+01	6.61206488e-24
3.80126953e+01	7.90684299e-24
3.80371094e+01	3.01599266e-24
3.80615234e+01	5.22391039e-24
3.80859375e+01	1.08926172e-23
3.81103516e+01	2.22365999e-24
3.81347656e+01	8.20296589e-24
3.81591797e+01	1.39454043e-23
3.81835938e+01	4.22013471e-24
3.82080078e+01	1.34032424e-24
3.82324219e+01	1.00136980e-24
3.82568359e+01	1.91093990e-24
3.82812500e+01	2.59865536e-24
3.83056641e+01	6.82238727e-24
3.83300781e+01	4.53739899e-24
3.83544922e+01	4.74920489e-24
3.83789062e+01	5.11337001e-24
3.84033203e+01	1.69090309e-24
3.84277344e+01	9.17537219e-25
3.84521484e+01	2.30135461e-24
3.84765625e+01	1.69975889e-24
3.85009766e+01	3.23741083e-24
3.85253906e+01	7.30623730e-24
3.85498047e+01	3.92974101e-24
3.85742188e+01	4.96876873e-24
3.85986328e+01	9.33462714e-24
3.86230469e+01	3.45443419e-24
3.86474609e+01	2.63810326e-24
3.86718750e+01	2.42824907e-24
3.86962891e+01	2.12066657e-24
3.87207031e+01	1.39226296e-24
3.87451172e+01	9.98820002e-24
3.87695312e+01	8.89928054e-24
3.87939453e+01	4.79671565e-24
3.88183594e+01	1.17688766e-23
3.88427734e+01	8.80567199e-24
3.88671875e+01	4.34460960e-24
3.88916016e+01	8.02658863e-24
3.89160156e+01	8.18017984e-24
3.89404297e+01	7.75369376e-24
3.89648438e+01	1.04427285e-23
3.89892578e+01	9.22505071e-24
3.90136719e+01	8.28256249e-24
3.90380859e+01	8.54687903e-24
3.90625000e+01	2.01570182e-24
3.90869141e+01	3.35389150e-24
3.91113281e+01	1.84584372e-24
3.91357422e+01	1.54874434e-24
3.91601562e+01	3.00035370e-24
3.91845703e+01	3.53413585e-24
3.92089844e+01	3.30323923e-24
3.92333984e+01	3.76391442e-24
3.92578125e+01	1.60948265e-24
3.92822266e+01	5.23005083e-24
3.93066406e+01	4.35204286e-24
3.93310547e+01	1.68731328e-24
3.93554688e+01	4.02500857e-24
3.93798828e+01	4.85466562e-24
3.94042969e+01	7.31467054e-24
3.94287109e+01	6.94466695e-24
3.94531250e+01	3.07734900e-24
3.94775391e+01	6.90077732e-24
3.95019531e+01	3.80376406e-24
3.95263672e+01	1.77075899e-24
3.95507812e+01	2.86548198e-24
3.95751953e+01	4.09325599e-24
3.95996094e+01	7.68751202e-24
3.96240234e+01	9.96862844e-24
3.96484375e+01	5.72697429e-24
3.96728516e+01	7.98331817e-24
3.96972656e+01	1.59972209e-23
3.97216797e+01	7.55211551e-24
3.97460938e+01	2.27452309e-24
3.97705078e+01	3.17237662e-24
3.97949219e+01	5.88100751e-24
3.98193359e+01	7.33761917e-24
3.98437500e+01	3.69968921e-24
3.98681641e+01	3.83972752e-24
3.98925781e+01	7.85060299e-24
3.99169922e+01	1.20706360e-23
3.99414062e+01	4.90763689e-24
3.99658203e+01	1.67110254e-24
3.99902344e+01	1.05320019e-24
4.00146484e+01	5.76650602e-25
4.00390625e+01	2.04996407e-24
4.00634766e+01	1.74825024e-24
4.00878906e+01	1.77374487e-24
4.01123047e+01	7.83271708e-25
4.01367188e+01	3.84865306e-24
4.01611328e+01	5.90098227e-24
4.01855469e+01	3.59838776e-24
4.02099609e+01	2.34140882e-24
4.02343750e+01	4.83926457e-24
4.02587891e+01	3.21858550e-24
4.02832031e+01	2.23905512e-24
4.03076172e+01	2.54825042e-24
4.03320312e+01	3.14840493e-24
4.03564453e+01	5.25048691e-24
4.03808594e+01	2.76138374e-24
4.04052734e+01	2.16028644e-24
4.04296875e+01	3.30342817e-24
4.04541016e+01	6.69543230e-24
4.04785156e+01	6.91351597e-24
4.05029297e+01	8.74063654e-24
4.05273438e+01	6.35163803e-24
4.05517578e+01	6.01421083e-24
4.05761719e+01	9.19690302e-24
4.06005859e+01	4.29471055e-24
4.06250000e+01	9.68573276e-25
4.06494141e+01	1.65632433e-24
4.06738281e+01	1.02455982e-24
4.06982422e+01	2.29757254e-24
4.07226562e+01	1.72075281e-24
4.07470703e+01	1.11863113e-24
4.07714844e+01	2.29647613e-24
4.07958984e+01	4.07262839e-24
4.08203125e+01	1.30884978e-24
4.08447266e+01	2.02114534e-24
4.08691406e+01	2.49802565e-24
4.08935547e+01	2.72978051e-24
4.09179688e+01	4.41681127e-24
4.09423828e+01	2.29473418e-24
4.09667969e+01	1.83181749e-24
4.09912109e+01	4.68908657e-24
4.10156250e+01	2.77866434e-24
4.10400391e+01	8.36303242e-25
4.10644531e+01	1.79740194e-24
4.10888672e+01	2.03531507e-24
4.11132812e+01	1.40608891e-24
4.11376953e+01	3.82552867e-24
4.11621094e+01	4.65613833e-24
4.11865234e+01	2.68985914e-24
4.12109375e+01	8.17606450e-24
4.12353516e+01	9.34976022e-24
4.12597656e+01	3.20407899e-24
4.12841797e+01	2.58357361e-24
4.13085938e+01	1.48192895e-24
4.13330078e+01	1.59198580e-24
4.13574219e+01	4.74524363e-24
4.13818359e+01	1.20807671e-23
4.14062500e+01	6.55254325e-24
4.14306641e+01	1.01418595e-24
4.14550781e+01	1.92695869e-24
4.14794922e+01	2.36208125e-24
4.15039062e+01	1.88810835e-24
4.15283203e+01	1.21264595e-24
4.15527344e+01	9.87730110e-25
4.15771484e+01	1.21940876e-24
4.16015625e+01	3.81657244e-24
4.16259766e+01	4.68773891e-24
4.16503906e+01	7.32662611e-24
4.16748047e+01	6.63690906e-24
4.16992188e+01	4.91117651e-24
4.17236328e+01	2.46801273e-24
4.17480469e+01	2.04776713e-24
4.17724609e+01	2.33575261e-24
4.17968750e+01	3.55365672e-24
4.18212891e+01	2.94056813e-24
4.18457031e+01	4.98149481e-24
4.18701172e+01	2.48854592e-24
4.18945312e+01	3.95259802e-24
4.19189453e+01	3.55983716e-24
4.19433594e+01	1.25076593e-24
4.19677734e+01	3.38740477e-25
4.19921875e+01	1.36311078e-24
4.20166016e+01	5.81838705e-24
4.20410156e+01	6.51952935e-24
4.20654297e+01	4.07044808e-24
4.20898438e+01	6.01583070e-24
4.21142578e+01	5.14045196e-24
4.21386719e+01	3.41471587e-24
4.21630859e+01	2.25675098e-24
4.21875000e+01	2.76701498e-24
4.22119141e+01	2.29570257e-24
4.22363281e+01	8.58356393e-25
4.22607422e+01	1.23460544e-24
4.22851562e+01	2.37911460e-24
4.23095703e+01	4.95212088e-24
4.23339844e+01	4.61170282e-24
4.23583984e+01	2.51154979e-24
4.23828125e+01	3.15934640e-24
4.24072266e+01	1.48563056e-24
4.24316406e+01	1.50507280e-24
4.24560547e+01	3.19630658e-25
4.24804688e+01	2.45387264e-24
4.25048828e+01	3.52597295e-24
4.25292969e+01	6.96537993e-24
4.25537109e+01	7.71129792e-24
4.25781250e+01	1.72970671e-24
4.26025391e+01	3.74161911e-24
4.26269531e+01	4.41157294e-24
4.26513672e+01	1.29243108e-24
4.26757812e+01	6.93758609e-25
4.27001953e+01	2.20272166e-24
4.27246094e+01	2.01390716e-24
4.27490234e+01	2.97925520e-24
4.27734375e+01	3.32909022e-24
4.27978516e+01	1.69095730e-24
4.28222656e+01	7.93654655e-25
4.28466797e+01	3.40411633e-24
4.28710938e+01	3.01323984e-24
4.28955078e+01	1.92919468e-24
4.29199219e+01	1.49390420e-24
4.29443359e+01	5.90414388e-24
4.29687500e+01	3.86672451e-24
4.29931641e+01	2.17795097e-24
4.30175781e+01	1.14349138e-24
4.30419922e+01	2.37732116e-24
4.30664062e+01	3.39688546e-24
4.30908203e+01	2.71658391e-24
4.31152344e+01	2.20185973e-24
4.31396484e+01	6.67817538e-24
4.31640625e+01	7.12358498e-24
4.31884766e+01	1.92859985e-24
4.32128906e+01	4.01016006e-24
4.32373047e+01	2.15907917e-24
4.32617188e+01	8.48391778e-25
4.32861328e+01	6.30762924e-25
4.33105469e+01	1.03047604e-24
4.33349609e+01	2.78140002e-24
4.33593750e+01	3.66131536e-24
4.33837891e+01	2.38319966e-24
4.34082031e+01	2.40125840e-24
4.34326172e+01	9.21996063e-24
4.34570312e+01	4.68106010e-24
4.34814453e+01	4.55577424e-24
4.35058594e+01	2.31373817e-24
4.35302734e+01	1.11666043e-24
4.35546875e+01	4.62437605e-24
4.35791016e+01	9.46826753e-24
4.36035156e+01	5.23478756e-24
4.36279297e+01	2.70207192e-24
4.36523438e+01	4.20597145e-24
4.36767578e+01	3.31040228e-24
4.37011719e+01	3.02809554e-24
4.37255859e+01	1.95493381e-24
4.37500000e+01	1.91218308e-24
4.37744141e+01	2.20776075e-24
4.37988281e+01	1.04111939e-24
4.38232422e+01	2.17185734e-24
4.38476562e+01	5.31304124e-24
4.38720703e+01	6.51415668e-24
4.38964844e+01	3.53140364e-24
4.39208984e+01	1.66859698e-24
4.39453125e+01	1.60633443e-24
4.39697266e+01	9.02911755e-25
4.39941406e+01	6.54822622e-24
4.40185547e+01	1.45316675e-23
4.40429688e+01	1.00186046e-23
4.40673828e+01	1.70408937e-24
4.40917969e+01	1.36529746e-24
4.41162109e+01	3.24276238e-24
4.41406250e+01	2.36225492e-24
4.41650391e+01	1.87062578e-24
4.41894531e+01	2.34588693e-24
4.42138672e+01	1.73729417e-24
4.42382812e+01	2.54232227e-24
4.42626953e+01	3.01533637e-24
4.42871094e+01	2.71755970e-24
4.43115234e+01	5.47623733e-24
4.43359375e+01	4.19494895e-24
4.43603516e+01	1.34025049e-24
4.43847656e+01	2.00685022e-24
4.44091797e+01	1.65468053e-24
4.44335938e+01	5.19408410e-24
4.44580078e+01	5.59135636e-24
4.44824219e+01	2.07709597e-24
4.45068359e+01	5.63361475e-24
4.45312500e+01	1.28392788e-23
4.45556641e+01	8.96096932e-24
4.45800781e+01	4.24921990e-24
4.46044922e+01	3.07424308e-24
4.46289062e+01	4.89159586e-24
4.46533203e+01	4.19539071e-24
4.46777344e+01	7.32422743e-24
4.47021484e+01	1.04696672e-23
4.47265625e+01	1.00524697e-23
4.47509766e+01	1.01429276e-23
4.47753906e+01	4.34920053e-24
4.47998047e+01	4.59641039e-24
4.48242188e+01	4.03530683e-24
4.48486328e+01	9.18350148e-24
4.48730469e+01	7.61582359e-24
4.48974609e+01	6.74223083e-24
4.49218750e+01	1.39042018e-23
4.49462891e+01	8.80534199e-24
4.49707031e+01	2.56428264e-23
4.49951172e+01	1.40227562e-23
4.50195312e+01	5.68136788e-24
4.50439453e+01	1.92311733e-24
4.50683594e+01	3.59384883e-24
4.50927734e+01	1.02812482e-23
4.51171875e+01	1.54102734e-23
4.51416016e+01	2.49422310e-23
4.51660156e+01	1.50917555e-23
4.51904297e+01	2.60627774e-23
4.52148438e+01	1.46303601e-23
4.52392578e+01	7.97482037e-24
4.52636719e+01	2.82742081e-24
4.52880859e+01	2.47069498e-24
4.53125000e+01	6.84412712e-24
4.53369141e+01	6.94072513e-24
4.53613281e+01	7.28363513e-24
4.53857422e+01	4.79879626e-24
4.54101562e+01	5.80341561e-24
4.54345703e+01	4.35649343e-24
4.54589844e+01	3.68826884e-24
4.54833984e+01	3.24776211e-24
4.55078125e+01	1.31428872e-24
4.55322266e+01	2.39906695e-24
4.55566406e+01	9.03619528e-24
4.55810547e+01	1.13376192e-23
4.56054688e+01	9.04353083e-24
4.56298828e+01	1.86085988e-23
4.56542969e+01	1.50901167e-23
4.56787109e+01	6.21738415e-24
4.57031250e+01	9.55245996e-24
4.57275391e+01	4.43249971e-24
4.57519531e+01	2.43734827e-24
4.57763672e+01	6.76695870e-24
4.58007812e+01	9.53060966e-24
4.58251953e+01	1.67993678e-23
4.58496094e+01	2.72234788e-23
4.58740234e+01	1.48639886e-23
4.58984375e+01	3.35208051e-24
4.59228516e+01	4.61284759e-24
4.59472656e+01	5.77051676e-24
4.59716797e+01	3.22750990e-24
4.59960938e+01	3.10001980e-24
4.60205078e+01	6.81826784e-24
4.60449219e+01	2.60982758e-24
4.60693359e+01	1.66482839e-24
4.60937500e+01	2.77732162e-24
4.61181641e+01	2.63494389e-24
4.61425781e+01	4.66770768e-24
4.61669922e+01	4.72974225e-24
4.61914062e+01	8.36914627e-24
4.62158203e+01	1.53493705e-23
4.62402344e+01	1.49021057e-23
4.62646484e+01	1.00933983e-23
4.62890625e+01	3.15373770e-23
4.63134766e+01	2.68981357e-23
4.63378906e+01	5.06305289e-24
4.63623047e+01	6.52858443e-24
4.63867188e+01	9.68300349e-24
4.64111328e+01	3.82959572e-24
4.64355469e+01	9.98561713e-24
4.64599609e+01	5.73693809e-24
4.64843750e+01	1.73815301e-24
4.65087891e+01	9.37796966e-24
4.65332031e+01	7.40312034e-24
4.65576172e+01	3.06699125e-24
4.65820312e+01	5.04109497e-24
4.66064453e+01	1.65677873e-23
4.66308594e+01	9.67987879e-24
4.66552734e+01	8.69484367e-24
4.66796875e+01	1.16337629e-23
4.67041016e+01	6.29248356e-24
4.67285156e+01	3.57098148e-24
4.67529297e+01	4.57772311e-24
4.67773438e+01	3.19495784e-24
4.68017578e+01	3.61491421e-24
4.68261719e+01	9.06789504e-24
4.68505859e+01	7.80477255e-24
4.68750000e+01	4.25719843e-24
4.68994141e+01	5.73299788e-24
4.69238281e+01	7.42239943e-24
4.69482422e+01	1.06642493e-23
4.69726562e+01	6.87342210e-24
4.69970703e+01	3.19893956e-24
4.70214844e+01	3.18605741e-24
4.70458984e+01	4.52702934e-24
4.70703125e+01	3.96416932e-24
4.70947266e+01	3.97409524e-24
4.71191406e+01	7.02272785e-24
4.71435547e+01	1.15461872e-23
4.71679688e+01	1.52665979e-23
4.71923828e+01	3.76084607e-24
4.72167969e+01	1.73351322e-24
4.72412109e+01	1.39006130e-24
4.72656250e+01	5.97556313e-24
4.72900391e+01	8.27638612e-24
4.73144531e+01	7.97903526e-24
4.73388672e+01	1.37049307e-23
4.73632812e+01	1.26531348e-23
4.73876953e+01	1.72458145e-23
4.74121094e+01	8.67656745e-24
4.74365234e+01	1.98978202e-24
4.74609375e+01	9.38990100e-25
4.74853516e+01	2.67185526e-24
4.75097656e+01	3.41294561e-24
4.75341797e+01	3.24499689e-24
4.75585938e+01	8.98318292e-24
4.75830078e+01	1.16098843e-23
4.76074219e+01	1.89385332e-23
4.76318359e+01	5.18840522e-24
4.76562500e+01	1.43990936e-24
4.76806641e+01	2.01442951e-24
4.77050781e+01	7.50356307e-24
4.77294922e+01	7.03752475e-24
4.77539062e+01	6.66963654e-24
4.77783203e+01	9.89294261e-24
4.78027344e+01	5.60862584e-24
4.78271484e+01	1.20594679e-24
4.78515625e+01	9.06979910e-25
4.78759766e+01	7.93593448e-25
4.79003906e+01	1.40616729e-24
4.79248047e+01	3.62499923e-24
4.79492188e+01	2.65035885e-24
4.79736328e+01	3.67151713e-24
4.79980469e+01	3.58056235e-24
4.80224609e+01	2.10502617e-24
4.80468750e+01	2.99589535e-24
4.80712891e+01	2.15366649e-24
4.80957031e+01	1.34234906e-24
4.81201172e+01	1.91889212e-24
4.81445312e+01	3.33335048e-25
4.81689453e+01	2.07739624e-24
4.81933594e+01	2.12079948e-24
4.82177734e+01	6.69145301e-24
4.82421875e+01	2.56354443e-24
4.82666016e+01	1.79214876e-24
4.82910156e+01	1.90338009e-24
4.83154297e+01	1.17285423e-24
4.83398438e+01	6.83146176e-25
4.83642578e+01	1.34670729e-24
4.83886719e+01	3.96220636e-24
4.84130859e+01	2.44488685e-24
4.84375000e+01	1.01220633e-23
4.84619141e+01	6.70110745e-24
4.84863281e+01	7.72453850e-24
4.85107422e+01	2.40917611e-24
4.85351562e+01	3.22152264e-24
4.85595703e+01	4.63991947e-24
4.85839844e+01	6.71927622e-24
4.86083984e+01	8.30606165e-24
4.86328125e+01	1.24241471e-23
4.86572266e+01	1.12391656e-23
4.86816406e+01	4.50005137e-24
4.87060547e+01	9.37963981e-24
4.87304688e+01	9.97444125e-24
4.87548828e+01	9.32699917e-24
4.87792969e+01	4.63753176e-24
4.88037109e+01	1.51136755e-25
4.88281250e+01	1.34628221e-24
4.88525391e+01	1.53450791e-24
4.88769531e+01	1.03264503e-23
4.89013672e+01	5.87503013e-24
4.89257812e+01	8.09945103e-24
4.89501953e+01	1.65021349e-23
4.89746094e+01	6.06552021e-24
4.89990234e+01	2.59298136e-24
4.90234375e+01	2.73691412e-24
4.90478516e+01	5.71964894e-24
4.90722656e+01	3.17639881e-24
4.90966797e+01	1.02223895e-23
4.91210938e+01	6.81551575e-24
4.91455078e+01	4.68018331e-24
4.91699219e+01	5.35433786e-24