scalar
part
         1
quad4
 3.46296e-07
 3.34596e-07
 3.19156e-07
 3.01730e-07
 2.83529e-07
 2.65356e-07
 2.47722e-07
 2.30929e-07
 2.15140e-07
 2.00425e-07
 1.86791e-07
 1.74209e-07
 1.62629e-07
 1.51985e-07
 1.42210e-07
 1.33234e-07
 1.24990e-07
 1.17414e-07
 1.10445e-07
 1.04029e-07
 4.29153e-07
 4.05214e-07
 3.78885e-07
 3.52055e-07
 3.25879e-07
 3.01018e-07
 2.77809e-07
 2.56384e-07
 2.36749e-07
 2.18838e-07
 2.02544e-07
 1.87742e-07
 1.74302e-07
 1.62096e-07
 1.51003e-07
 1.40912e-07
 1.31720e-07
 1.23335e-07
 1.15673e-07
 1.08661e-07
 5.31509e-07
 4.89552e-07
 4.48169e-07
 4.08980e-07
 3.72752e-07
 3.39751e-07
 3.09956e-07
 2.83196e-07
 2.59229e-07
 2.37786e-07
 2.18600e-07
 2.01419e-07
 1.86013e-07
 1.72174e-07
 1.59718e-07
 1.48482e-07
 1.38325e-07
 1.29122e-07
 1.20765e-07
 1.13159e-07
 6.56141e-07
 5.88571e-07
 5.27051e-07
 4.72123e-07
 4.23605e-07
 3.80984e-07
 3.43628e-07
 3.10891e-07
 2.82171e-07
 2.56923e-07
 2.34671e-07
 2.15002e-07
 1.97564e-07
 1.82054e-07
 1.68216e-07
 1.55831e-07
 1.44711e-07
 1.34698e-07
 1.25655e-07
 1.17465e-07
 8.04499e-07
 7.02003e-07
 6.14597e-07
 5.40381e-07
 4.77380e-07
 4.23786e-07
 3.78038e-07
 3.38821e-07
 3.05047e-07
 2.75822e-07
 2.50411e-07
 2.28211e-07
 2.08728e-07
 1.91553e-07
 1.76349e-07
 1.62835e-07
 1.50776e-07
 1.39977e-07
 1.30273e-07
 1.21522e-07
 9.75279e-07
 8.27562e-07
 7.08485e-07
 6.11719e-07
 5.32404e-07
 4.66824e-07
 4.12139e-07
 3.66167e-07
 3.27220e-07
 2.93984e-07
 2.65428e-07
 2.40737e-07
 2.19260e-07
 2.00475e-07
 1.83959e-07
 1.69367e-07
 1.56418e-07
 1.44877e-07
 1.34549e-07
 1.25274e-07
 1.16268e-06
 9.60136e-07
 8.04657e-07
 6.83051e-07
 5.86369e-07
 5.08379e-07
 4.44650e-07
 3.91968e-07
 3.47963e-07
 3.10856e-07
 2.79299e-07
 2.52252e-07
 2.28904e-07
 2.08618e-07
 1.90886e-07
 1.75301e-07
 1.61533e-07
 1.49313e-07
 1.38417e-07
 1.28664e-07
 1.35482e-06
 1.09128e-06
 8.97227e-07
 7.50286e-07
 6.36413e-07
 5.46429e-07
 4.74124e-07
 4.15178e-07
 3.66508e-07
 3.25869e-07
 2.91595e-07
 2.62429e-07
 2.37409e-07
 2.15787e-07
 1.96978e-07
 1.80515e-07
 1.66025e-07
 1.53207e-07
 1.41813e-07
 1.31640e-07
 1.53315e-06
 1.20938e-06
 9.78823e-07
 8.08639e-07
 6.79363e-07
 5.78823e-07
 4.99073e-07
 4.34746e-07
 3.82101e-07
 3.38470e-07
 3.01907e-07
 2.70962e-07
 2.44540e-07
 2.21802e-07
 2.02093e-07
 1.84898e-07
 1.69806e-07
 1.56489e-07
 1.44679e-07
 1.34157e-07
 1.67409e-06
 1.30110e-06
 1.04155e-06
 8.53255e-07
 7.12126e-07
 6.03528e-07
 5.18125e-07
 4.49721e-07
 3.94070e-07
 3.48176e-07
 3.09879e-07
 2.77585e-07
 2.50098e-07
 2.26509e-07
 2.06112e-07
 1.88356e-07
 1.72802e-07
 1.59100e-07
 1.46968e-07
 1.36174e-07
 1.75429e-06
 1.35420e-06
 1.07854e-06
 8.80058e-07
 7.32173e-07
 6.18915e-07
 5.30193e-07
 4.59363e-07
 4.01894e-07
 3.54613e-07
 3.15238e-07
 2.82094e-07
 2.53929e-07
 2.29791e-07
 2.08945e-07
 1.90818e-07
 1.74955e-07
 1.60995e-07
 1.48643e-07
 1.37663e-07
 1.75907e-06
 1.36122e-06
 1.08568e-06
 8.86635e-07
 7.38011e-07
 6.24021e-07
 5.34636e-07
 4.63226e-07
 4.05260e-07
 3.57554e-07
 3.17818e-07
 2.84366e-07
 2.55937e-07
 2.31573e-07
 2.10533e-07
 1.92238e-07
 1.76230e-07
 1.62143e-07
 1.49681e-07
 1.38603e-07
 1.68935e-06
 1.32224e-06
 1.06284e-06
 8.72818e-07
 7.29485e-07
 6.18713e-07
 5.31343e-07
 4.61222e-07
 4.04095e-07
 3.56942e-07
 3.17571e-07
 2.84360e-07
 2.56091e-07
 2.31831e-07
 2.10855e-07
 1.92599e-07
 1.76611e-07
 1.62532e-07
 1.50069e-07
 1.38985e-07
 1.56127e-06
 1.24485e-06
 1.01388e-06
 8.40702e-07
 7.07787e-07
 6.03699e-07
 5.20748e-07
 4.53625e-07
 3.98576e-07
 3.52890e-07
 3.14573e-07
 2.82130e-07
 2.54426e-07
 2.30586e-07
 2.09928e-07
 1.91911e-07
 1.76106e-07
 1.62167e-07
 1.49813e-07
 1.38812e-07
 1.39873e-06
 1.14128e-06
 9.45469e-07
 7.94094e-07
 6.75191e-07
 5.80385e-07
 5.03749e-07
 4.41022e-07
 3.89097e-07
 3.45670e-07
 3.09013e-07
 2.77807e-07
 2.51037e-07
 2.27910e-07
 2.07801e-07
 1.90213e-07
 1.74744e-07
 1.61070e-07
 1.48927e-07
 1.38096e-07
 1.22467e-06
 1.02462e-06
 8.65252e-07
 7.37622e-07
 6.34581e-07
 5.50623e-07
 4.81565e-07
 4.24235e-07
 3.76223e-07
 3.35678e-07
 3.01173e-07
 2.71597e-07
 2.46075e-07
 2.23914e-07
 2.04561e-07
 1.87568e-07
 1.72573e-07
 1.59279e-07
 1.47442e-07
 1.36860e-07
 1.05592e-06
 9.05813e-07
 7.80288e-07
 6.75863e-07
 5.88969e-07
 5.16427e-07
 4.55567e-07
 4.04215e-07
 3.60624e-07
 3.23392e-07
 2.91402e-07
 2.63755e-07
 2.39730e-07
 2.18741e-07
 2.00314e-07
 1.84059e-07
 1.69658e-07
 1.56844e-07
 1.45398e-07
 1.35136e-07
 9.02216e-07
 7.92477e-07
 6.96101e-07
 6.12716e-07
 5.41090e-07
 4.79721e-07
 4.27121e-07
 3.81940e-07
 3.43008e-07
 3.09332e-07
 2.80082e-07
 2.54569e-07
 2.32219e-07
 2.12557e-07
 1.95190e-07
 1.79788e-07
 1.66077e-07
 1.53827e-07
 1.42844e-07
 1.32964e-07
 7.67658e-07
 6.88978e-07
 6.16424e-07
 5.51119e-07
 4.93172e-07
 4.42171e-07
 3.97464e-07
 3.58329e-07
 3.24063e-07
 2.94015e-07
 2.67607e-07
 2.44338e-07
 2.23772e-07
 2.05541e-07
 1.89327e-07
 1.74862e-07
 1.61917e-07
 1.50297e-07
 1.39834e-07
 1.30387e-07
 6.52732e-07
 5.97176e-07
 5.43391e-07
 4.93028e-07
 4.46857e-07
 4.05094e-07
 3.67631e-07
 3.34191e-07
 3.04415e-07
 2.77925e-07
 2.54353e-07
 2.33355e-07
 2.14621e-07
 1.97874e-07
 1.82871e-07
 1.69398e-07
 1.57271e-07
 1.46329e-07
 1.36431e-07
 1.27456e-07
