scalar
part
         1
quad4
 5.49896e-07
 5.08528e-07
 4.67285e-07
 4.27788e-07
 3.90908e-07
 3.57028e-07
 3.26223e-07
 2.98395e-07
 2.73353e-07
 2.50862e-07
 2.30676e-07
 2.12553e-07
 1.96270e-07
 1.81620e-07
 1.68417e-07
 1.56497e-07
 1.45714e-07
 1.35939e-07
 1.27061e-07
 1.18978e-07
 6.53102e-07
 5.92362e-07
 5.35112e-07
 4.82644e-07
 4.35367e-07
 3.93190e-07
 3.55772e-07
 3.22667e-07
 2.93399e-07
 2.67510e-07
 2.44580e-07
 2.24229e-07
 2.06128e-07
 1.89985e-07
 1.75551e-07
 1.62611e-07
 1.50977e-07
 1.40490e-07
 1.31011e-07
 1.22422e-07
 7.75502e-07
 6.88301e-07
 6.10377e-07
 5.41925e-07
 4.82329e-07
 4.30645e-07
 3.85863e-07
 3.47020e-07
 3.13255e-07
 2.83815e-07
 2.58062e-07
 2.35451e-07
 2.15527e-07
 1.97906e-07
 1.82264e-07
 1.68330e-07
 1.55875e-07
 1.44705e-07
 1.34655e-07
 1.25585e-07
 9.17625e-07
 7.95408e-07
 6.91681e-07
 6.04216e-07
 5.30536e-07
 4.68340e-07
 4.15638e-07
 3.70771e-07
 3.32375e-07
 2.99345e-07
 2.70779e-07
 2.45947e-07
 2.24252e-07
 2.05208e-07
 1.88414e-07
 1.73542e-07
 1.60316e-07
 1.48508e-07
 1.37929e-07
 1.28417e-07
 1.07721e-06
 9.10717e-07
 7.76267e-07
 6.67228e-07
 5.78182e-07
 5.04879e-07
 4.44029e-07
 3.93101e-07
 3.50137e-07
 3.13619e-07
 2.82361e-07
 2.55427e-07
 2.32076e-07
 2.11714e-07
 1.93862e-07
 1.78133e-07
 1.64209e-07
 1.51829e-07
 1.40775e-07
 1.30869e-07
 1.24743e-06
 1.02851e-06
 8.59771e-07
 7.27750e-07
 6.22933e-07
 5.38566e-07
 4.69800e-07
 4.13102e-07
 3.65865e-07
 3.26134e-07
 2.92427e-07
 2.63603e-07
 2.38776e-07
 2.17250e-07
 1.98472e-07
 1.81998e-07
 1.67470e-07
 1.54597e-07
 1.43138e-07
 1.32896e-07
 1.41549e-06
 1.13999e-06
 9.36278e-07
 7.81794e-07
 6.62069e-07
 5.67523e-07
 4.91632e-07
 4.29837e-07
 3.78883e-07
 3.36394e-07
 3.00609e-07
 2.70198e-07
 2.44143e-07
 2.21656e-07
 2.02118e-07
 1.85038e-07
 1.70022e-07
 1.56752e-07
 1.44969e-07
 1.34460e-07
 1.56270e-06
 1.23396e-06
 9.98893e-07
 8.25006e-07
 6.92769e-07
 5.89876e-07
 5.08253e-07
 4.42424e-07
 3.88568e-07
 3.43952e-07
 3.06582e-07
 2.74971e-07
 2.47996e-07
 2.24796e-07
 2.04697e-07
 1.87173e-07
 1.71801e-07
 1.58245e-07
 1.46229e-07
 1.35529e-07
 1.66760e-06
 1.29867e-06
 1.04087e-06
 8.53335e-07
 7.12508e-07
 6.03999e-07
 5.18586e-07
 4.50131e-07
 3.94412e-07
 3.48449e-07
 3.10086e-07
 2.77733e-07
 2.50196e-07
 2.26563e-07
 2.06128e-07
 1.88340e-07
 1.72760e-07
 1.59037e-07
 1.46886e-07
 1.36078e-07
 1.71195e-06
 1.32480e-06
 1.05709e-06
 8.63802e-07
 7.19475e-07
 6.08751e-07
 5.21891e-07
 4.52464e-07
 3.96079e-07
 3.49650e-07
 3.10955e-07
 2.78364e-07
 2.50653e-07
 2.26891e-07
 2.06362e-07
 1.88503e-07
 1.72869e-07
 1.59106e-07
 1.46925e-07
 1.36093e-07
 1.68720e-06
 1.30811e-06
 1.04528e-06
 8.55134e-07
 7.12920e-07
 6.03672e-07
 5.17875e-07
 4.49233e-07
 3.93441e-07
 3.47467e-07
 3.09130e-07
 2.76821e-07
 2.49337e-07
 2.25760e-07
 2.05382e-07
 1.87649e-07
 1.72120e-07
 1.58445e-07
 1.46340e-07
 1.35572e-07
 1.59753e-06
 1.25076e-06
 1.00666e-06
 8.28055e-07
 6.93297e-07
 5.89059e-07
 5.06739e-07
 4.40578e-07
 3.86597e-07
 3.41975e-07
 3.04663e-07
 2.73145e-07
 2.46279e-07
 2.23193e-07
 2.03208e-07
 1.85794e-07
 1.70526e-07
 1.57065e-07
 1.45139e-07
 1.34521e-07
 1.45795e-06
 1.16055e-06
 9.45577e-07
 7.85119e-07
 6.62180e-07
 5.65920e-07
 4.89150e-07
 4.26952e-07
 3.75865e-07
 3.33398e-07
 2.97718e-07
 2.67457e-07
 2.41571e-07
 2.19260e-07
 1.99894e-07
 1.82978e-07
 1.68117e-07
 1.54992e-07
 1.43342e-07
 1.32956e-07
 1.28904e-06
 1.04860e-06
 8.68405e-07
 7.30168e-07
 6.21974e-07
 5.35811e-07
 4.66147e-07
 4.09066e-07
 3.61742e-07
 3.22091e-07
 2.88555e-07
 2.59948e-07
 2.35356e-07
 2.14069e-07
 1.95522e-07
 1.79269e-07
 1.64947e-07
 1.52266e-07
 1.40984e-07
 1.30904e-07
 1.11107e-06
 9.26631e-07
 7.82191e-07
 6.67596e-07
 5.75508e-07
 5.00608e-07
 4.39001e-07
 3.87804e-07
 3.44853e-07
 3.08507e-07
 2.77503e-07
 2.50864e-07
 2.27820e-07
 2.07762e-07
 1.90203e-07
 1.74750e-07
 1.61083e-07
 1.48941e-07
 1.38106e-07
 1.28400e-07
 9.39786e-07
 8.04656e-07
 6.93400e-07
 6.01649e-07
 5.25629e-07
 4.62256e-07
 4.09070e-07
 3.64127e-07
 3.25892e-07
 2.93151e-07
 2.64940e-07
 2.40489e-07
 2.19178e-07
 2.00506e-07
 1.84066e-07
 1.69524e-07
 1.56605e-07
 1.45081e-07
 1.34761e-07
 1.25487e-07
 7.84927e-07
 6.89837e-07
 6.07117e-07
 5.35913e-07
 4.74872e-07
 4.22562e-07
 3.77655e-07
 3.38984e-07
 3.05558e-07
 2.76547e-07
 2.51260e-07
 2.29123e-07
 2.09661e-07
 1.92480e-07
 1.77252e-07
 1.63703e-07
 1.51603e-07
 1.40758e-07
 1.31007e-07
 1.22211e-07
 6.50784e-07
 5.86330e-07
 5.26775e-07
 4.73060e-07
 4.25268e-07
 3.83056e-07
 3.45905e-07
 3.13242e-07
 2.84510e-07
 2.59197e-07
 2.36848e-07
 2.17066e-07
 1.99504e-07
 1.83870e-07
 1.69908e-07
 1.57403e-07
 1.46170e-07
 1.36049e-07
 1.26906e-07
 1.18623e-07
 5.37855e-07
 4.95835e-07
 4.54280e-07
 4.14825e-07
 3.78272e-07
 3.44915e-07
 3.14757e-07
 2.87639e-07
 2.63326e-07
 2.41556e-07
 2.22065e-07
 2.04601e-07
 1.88934e-07
 1.74854e-07
 1.62178e-07
 1.50742e-07
 1.40401e-07
 1.31032e-07
 1.22522e-07
 1.14777e-07
 4.44484e-07
 4.18366e-07
 3.90338e-07
 3.62128e-07
 3.34801e-07
 3.08962e-07
 2.84912e-07
 2.62758e-07
 2.42486e-07
 2.24014e-07
 2.07226e-07
 1.91986e-07
 1.78157e-07
 1.65604e-07
 1.54202e-07
 1.43833e-07
 1.34392e-07
 1.25782e-07
 1.17919e-07
 1.10725e-07
