# vtk DataFile Version 2.0
gauge_2
ASCII
DATASET POLYDATA
POINTS 69 double
0.2 0.0314993 0.005
0.2 0.0329993 0.005
0.2 0.0344993 0.005
0.2 0.0359992 0.005
0.2 0.0374992 0.005
0.2 0.0389992 0.005
0.2 0.0404991 0.005
0.2 0.0419991 0.005
0.2 0.0434991 0.005
0.2 0.044999 0.005
0.2 0.046499 0.005
0.2 0.047999 0.005
0.2 0.0511894 0.005
0.2 0.0543799 0.005
0.2 0.0575704 0.005
0.2 0.0607609 0.005
0.2 0.0639514 0.005
0.2 0.0671419 0.005
0.2 0.0703323 0.005
0.2 0.0735228 0.005
0.2 0.0767133 0.005
0.2 0.0799038 0.005
0.2 0.0830943 0.005
0.2 0.0862847 0.005
0.2 0.0894752 0.005
0.2 0.0926657 0.005
0.2 0.0958562 0.005
0.2 0.0990467 0.005
0.2 0.102237 0.005
0.2 0.105428 0.005
0.2 0.108618 0.005
0.2 0.111809 0.005
0.2 0.114999 0.005
0.2 0.11819 0.005
0.2 0.124571 0.005
0.2 0.137332 0.005
0.2 0.150094 0.005
0.2 0.162856 0.005
0.2 0.175618 0.005
0.2 0.18838 0.005
0.2 0.201142 0.005
0.2 0.213904 0.005
0.2 0.226666 0.005
0.2 0.239428 0.005
0.2 0.25219 0.005
0.2 0.264952 0.005
0.2 0.277714 0.005
0.2 0.290476 0.005
0.2 0.303238 0.005
0.2 0.315999 0.005
0.2 0.328761 0.005
0.2 0.341523 0.005
0.2 0.354285 0.005
0.2 0.367047 0.005
0.2 0.379809 0.005
0.2 0.392571 0.005
0.2 0.405333 0.005
0.2 0.418095 0.005
0.2 0.430857 0.005
0.2 0.443619 0.005
0.2 0.456381 0.005
0.2 0.469143 0.005
0.2 0.481905 0.005
0.2 0.494666 0.005
0.2 0.507428 0.005
0.2 0.52019 0.005
0.2 0.532952 0.005
0.2 0.545714 0.005
0.2 0.558476 0.005
POINT_DATA 69
 FIELD attributes 1
alpha.water 1 69 float
1 1 1 1 1 1 1 1 1 1 1 1 1 1 1 1 1 1 1 1 1 1 0.999999 0.999986 0.999996 0.999845 0.999744 0.999609 1.01238 0.726523 0.243977 3.51579e-05 1.62256e-06 5.63335e-06 4.62213e-05 0.00011215 8.43503e-05 2.89761e-05 1.98441e-08 1.65846e-08 8.53393e-10 1.99651e-09 1.70982e-09 5.68447e-10 4.40762e-11 1.3385e-13 5.74418e-14 2.14768e-14 2.91166e-15 1.52305e-15 9.46165e-16 3.3157e-16 3.36088e-15 1.6749e-14 3.13112e-14 1.79422e-14 1.88851e-15 -6.61906e-14 -6.84172e-14 -6.36044e-16 8.68806e-17 1.97337e-16 2.83974e-16 1.82878e-16 2.03438e-17 3.72349e-19 8.51353e-22 7.54893e-25 2.55328e-28
