0 	1
0.0007 	1
0.0014 	1
0.0021 	1
0.0028 	1
0.0035 	1
0.0042 	1
0.0049 	1
0.0056 	1
0.0063 	1
0.007 	1
0.0077 	1
0.0084 	1
0.0091 	1
0.0098 	1
0.0105 	1
0.0112 	1
0.0119 	1
0.0126 	1
0.0133 	1
0.014 	1
0.0147 	1
0.0154 	1
0.0161 	1
0.0168 	1
0.0175 	1
0.0182 	1
0.0189 	1
0.0196 	1
0.0203 	1
0.021 	1
0.0217 	1
0.0224 	1
0.0231 	1
0.0238 	1
0.0245 	1
0.0252 	1
0.0259 	1
0.0266 	1
0.0273 	1
0.028 	1
0.0287 	1
0.0294 	1
0.0301 	1
0.0308 	1
0.0315 	1
0.0322 	1
0.0329 	1
0.0336 	1
0.0343 	1
0.035 	1
0.0357 	1
0.0364 	1
0.0371 	1
0.0378 	1
0.0385 	1
0.0392 	1
0.0399 	1
0.0406 	1
0.0413 	1
0.042 	1
0.0427 	1
0.0434 	1
0.0441 	1
0.0448 	1
0.0455 	1
0.0462 	1
0.0469 	1
0.0476 	1
0.0483 	1
0.049 	1
0.0497 	1
0.0504 	1
0.0511 	1
0.0518 	1
0.0525 	1
0.0532 	1
0.0539 	1
0.0546 	1
0.0553 	1
0.056 	1
0.0567 	1
0.0574 	1
0.0581 	1
0.0588 	1
0.0595 	1
0.0602 	1
0.0609 	1
0.0616 	1
0.0623 	1
0.063 	1
0.0637 	1
0.0644 	1
0.0651 	1
0.0658 	1
0.0665 	1
0.0672 	1
0.0679 	1
0.0686 	1
0.0693 	1
0.07 	1
0.0707 	1
0.0714 	1
0.0721 	1
0.0728 	1
0.0735 	1
0.0742 	1
0.0749 	1
0.0756 	1
0.0763 	1
0.077 	1
0.0777 	1
0.0784 	1
0.0791 	1
0.0798 	1
0.0805 	1
0.0812 	1
0.0819 	1
0.0826 	1
0.0833 	1
0.084 	1
0.0847 	1
0.0854 	1
0.0861 	1
0.0868 	1
0.0875 	1
0.0882 	1
0.0889 	1
0.0896 	1
0.0903 	1
0.091 	1
0.0917 	1
0.0924 	1
0.0931 	1
0.0938 	1
0.0945 	1
0.0952 	1
0.0959 	1
0.0966 	1
0.0973 	1
0.098 	1
0.0987 	1
0.0994 	1
0.1001 	1
0.1008 	1
0.1015 	1
0.1022 	1
0.1029 	1
0.1036 	1
0.1043 	1
0.105 	1
0.1057 	1
0.1064 	1
0.1071 	1
0.1078 	1
0.1085 	1
0.1092 	1
0.1099 	1
0.1106 	1
0.1113 	1
0.112 	1
0.1127 	1
0.1134 	1
0.1141 	1
0.1148 	1
0.1155 	1
0.1162 	1
0.1169 	1
0.1176 	1
0.1183 	1
0.119 	1
0.1197 	1
0.1204 	1
0.1211 	1
0.1218 	1
0.1225 	1
0.1232 	1
0.1239 	1
0.1246 	1
0.1253 	1
0.126 	1
0.1267 	1
0.1274 	1
0.1281 	1
0.1288 	1
0.1295 	1
0.1302 	1
0.1309 	1
0.1316 	1
0.1323 	1
0.133 	1
0.1337 	1
0.1344 	1
0.1351 	1
0.1358 	1
0.1365 	1
0.1372 	1
0.1379 	1
0.1386 	1
0.1393 	1
0.14 	1
0.1407 	1
0.1414 	1
0.1421 	1
0.1428 	1
0.1435 	1
0.1442 	1
0.1449 	1
0.1456 	1
0.1463 	1
0.147 	1
0.1477 	1
0.1484 	1
0.1491 	1
0.1498 	1
0.1505 	1
0.1512 	1
0.1519 	1
0.1526 	1
0.1533 	1
0.154 	1
0.1547 	1
0.1554 	1
0.1561 	1
0.1568 	1
0.1575 	1
0.1582 	1
0.1589 	1
0.1596 	1
0.1603 	1
0.161 	1
0.1617 	1
0.1624 	1
0.1631 	1
0.1638 	1
0.1645 	1
0.1652 	1
0.1659 	1
0.1666 	1
0.1673 	1
0.168 	1
0.1687 	1
0.1694 	1
0.1701 	1
0.1708 	1
0.1715 	1
0.1722 	1
0.1729 	1
0.1736 	1
0.1743 	1
0.175 	1
0.1757 	1
0.1764 	1
0.1771 	1
0.1778 	1
0.1785 	1
0.1792 	1
0.1799 	1
0.1806 	1
0.1813 	1
0.182 	1
0.1827 	1
0.1834 	1
0.1841 	1
0.1848 	1
0.1855 	1
0.1862 	1
0.1869 	1
0.1876 	1
0.1883 	1
0.189 	1
0.1897 	1
0.1904 	1
0.1911 	1
0.1918 	1
0.1925 	1
0.1932 	1
0.1939 	1
0.1946 	1
0.1953 	1
0.196 	1
0.1967 	1
0.1974 	1
0.1981 	1
0.1988 	1
0.1995 	1
0.2002 	1
0.2009 	1
0.2016 	1
0.2023 	1
0.203 	1
0.2037 	1
0.2044 	1
0.2051 	1
0.2058 	1
0.2065 	1
0.2072 	1
0.2079 	1
0.2086 	1
0.2093 	1
0.21 	1
0.2107 	1
0.2114 	1
0.2121 	1
0.2128 	1
0.2135 	1
0.2142 	1
0.2149 	1
0.2156 	1
0.2163 	1
0.217 	1
0.2177 	1
0.2184 	1
0.2191 	1
0.2198 	1
0.2205 	1
0.2212 	1
0.2219 	1
0.2226 	1
0.2233 	1
0.224 	1
0.2247 	1
0.2254 	1
0.2261 	1
0.2268 	1
0.2275 	1
0.2282 	1
0.2289 	1
0.2296 	1
0.2303 	1
0.231 	1
0.2317 	1
0.2324 	1
0.2331 	1
0.2338 	1
0.2345 	1
0.2352 	1
0.2359 	1
0.2366 	1
0.2373 	1
0.238 	1
0.2387 	1
0.2394 	1
0.2401 	1
0.2408 	1
0.2415 	1
0.2422 	1
0.2429 	1
0.2436 	1
0.2443 	1
0.245 	1
0.2457 	1
0.2464 	1
0.2471 	1
0.2478 	1
0.2485 	1
0.2492 	1
0.2499 	1
0.2506 	1
0.2513 	1
0.252 	1
0.2527 	1
0.2534 	1
0.2541 	1
0.2548 	1
0.2555 	1
0.2562 	1
0.2569 	1
0.2576 	1
0.2583 	1
0.259 	1
0.2597 	1
0.2604 	1
0.2611 	1
0.2618 	1
0.2625 	1
0.2632 	1
0.2639 	1
0.2646 	1
0.2653 	1
0.266 	1
0.2667 	1
0.2674 	1
0.2681 	1
0.2688 	1
0.2695 	1
0.2702 	1
0.2709 	1
0.2716 	1
0.2723 	1
0.273 	1
0.2737 	1
0.2744 	1
0.2751 	1
0.2758 	1
0.2765 	1
0.2772 	1
0.2779 	1
0.2786 	1
0.2793 	1
0.28 	1
0.2807 	1
0.2814 	1
0.2821 	1
0.2828 	1
0.2835 	1
0.2842 	1
0.2849 	1
0.2856 	1
0.2863 	1
0.287 	1
0.2877 	1
0.2884 	1
0.2891 	1
0.2898 	1
0.2905 	1
0.2912 	1
0.2919 	1
0.2926 	1
0.2933 	1
0.294 	1
0.2947 	1
0.2954 	1
0.2961 	1
0.2968 	1
0.2975 	1
0.2982 	1
0.2989 	1
0.2996 	1
0.3003 	1
0.301 	1
0.3017 	1
0.3024 	1
0.3031 	1
0.3038 	1
0.3045 	1
0.3052 	1
0.3059 	1
0.3066 	1
0.3073 	1
0.308 	1
0.3087 	1
0.3094 	1
0.3101 	1
0.3108 	1
0.3115 	1
0.3122 	1
0.3129 	1
0.3136 	1
0.3143 	1
0.315 	1
0.3157 	1
0.3164 	1
0.3171 	1
0.3178 	1
0.3185 	1
0.3192 	1
0.3199 	1
0.3206 	1
0.3213 	1
0.322 	1
0.3227 	1
0.3234 	1
0.3241 	1
0.3248 	1
0.3255 	1
0.3262 	1
0.3269 	1
0.3276 	1
0.3283 	1
0.329 	1
0.3297 	1
0.3304 	1
0.3311 	1
0.3318 	1
0.3325 	1
0.3332 	1
0.3339 	1
0.3346 	1
0.3353 	1
0.336 	1
0.3367 	1
0.3374 	1
0.3381 	1
0.3388 	1
0.3395 	1
0.3402 	1
0.3409 	1
0.3416 	1
0.3423 	1
0.343 	1
0.3437 	1
0.3444 	1
0.3451 	1
0.3458 	1
0.3465 	1
0.3472 	1
0.3479 	1
0.3486 	1
0.3493 	1
0.35 	1
0.3507 	1
0.3514 	1
0.3521 	1
0.3528 	1
0.3535 	1
0.3542 	1
0.3549 	1
0.3556 	0.999983
0.3563 	0.999958
0.357 	0.999934
0.3577 	0.999909
0.3584 	0.999884
0.3591 	0.999859
0.3598 	0.999834
0.3605 	0.999103
0.3612 	0.997748
0.3619 	0.996394
0.3626 	0.995039
0.3633 	0.993684
0.364 	0.992329
0.3647 	0.990974
0.3654 	0.981157
0.3661 	0.958625
0.3668 	0.936093
0.3675 	0.913561
0.3682 	0.891029
0.3689 	0.868497
0.3696 	0.845965
0.3703 	0.807714
0.371 	0.746817
0.3717 	0.685921
0.3724 	0.625025
0.3731 	0.564128
0.3738 	0.503232
0.3745 	0.442336
0.3752 	0.375309
0.3759 	0.328065
0.3766 	0.280822
0.3773 	0.233579
0.378 	0.186335
0.3787 	0.139092
0.3794 	0.0918482
0.3801 	0.054742
0.3808 	0.0465707
0.3815 	0.0388232
0.3822 	0.0310756
0.3829 	0.023328
0.3836 	0.0155804
0.3843 	0.00783282
0.385 	0.00145977
0.3857 	0.00120086
0.3864 	0.00100129
0.3871 	0.000801728
0.3878 	0.000602163
0.3885 	0.000402599
0.3892 	0.000203034
0.3899 	1.23477e-05
0.3906 	1.01317e-05
0.3913 	8.51541e-06
0.392 	6.89911e-06
0.3927 	5.2828e-06
0.3934 	3.66649e-06
0.3941 	2.05019e-06
0.3948 	4.33878e-07
0.3955 	2.31633e-07
0.3962 	1.95828e-07
0.3969 	1.60023e-07
0.3976 	1.24218e-07
0.3983 	8.84133e-08
0.399 	5.26085e-08
0.3997 	1.68037e-08
0.4004 	7.01016e-09
0.4011 	5.94998e-09
0.4018 	4.8898e-09
0.4025 	3.82962e-09
0.4032 	2.76944e-09
0.4039 	1.70925e-09
0.4046 	6.49072e-10
0.4053 	2.1291e-10
0.406 	1.82375e-10
0.4067 	1.51841e-10
0.4074 	1.21306e-10
0.4081 	9.07711e-11
0.4088 	6.02363e-11
0.4095 	2.97015e-11
0.4102 	1.24767e-11
0.4109 	1.09674e-11
0.4116 	9.45811e-12
0.4123 	7.94883e-12
0.413 	6.43955e-12
0.4137 	4.93028e-12
0.4144 	3.421e-12
0.4151 	2.27792e-12
0.4158 	2.02331e-12
0.4165 	1.77552e-12
0.4172 	1.52772e-12
0.4179 	1.27993e-12
0.4186 	1.03214e-12
0.4193 	7.84349e-13
0.42 	5.64682e-13
0.4207 	4.97293e-13
0.4214 	4.37025e-13
0.4221 	3.76756e-13
0.4228 	3.16488e-13
0.4235 	2.56219e-13
0.4242 	1.95951e-13
0.4249 	1.37295e-13
0.4256 	1.19826e-13
0.4263 	1.05464e-13
0.427 	9.11018e-14
0.4277 	7.67399e-14
0.4284 	6.2378e-14
0.4291 	4.80161e-14
0.4298 	3.36543e-14
0.4305 	2.84711e-14
0.4312 	2.51531e-14
0.4319 	2.18351e-14
0.4326 	1.85171e-14
0.4333 	1.51991e-14
0.434 	1.18811e-14
0.4347 	8.56305e-15
0.4354 	6.95725e-15
0.4361 	6.13942e-15
0.4368 	5.32158e-15
0.4375 	4.50374e-15
0.4382 	3.68591e-15
0.4389 	2.86807e-15
0.4396 	2.05024e-15
0.4403 	1.56835e-15
0.441 	1.37486e-15
0.4417 	1.18136e-15
0.4424 	9.87867e-16
0.4431 	7.94371e-16
0.4438 	6.00876e-16
0.4445 	4.07381e-16
0.4452 	2.78057e-16
0.4459 	2.42289e-16
0.4466 	2.06521e-16
0.4473 	1.70752e-16
0.448 	1.34984e-16
0.4487 	9.92156e-17
0.4494 	6.34473e-17
0.4501 	3.65871e-17
0.4508 	3.16786e-17
0.4515 	2.69435e-17
0.4522 	2.22084e-17
0.4529 	1.74733e-17
0.4536 	1.27381e-17
0.4543 	8.00301e-18
0.455 	3.97849e-18
0.4557 	3.39876e-18
0.4564 	2.89801e-18
0.4571 	2.39727e-18
0.4578 	1.89652e-18
0.4585 	1.39577e-18
0.4592 	8.95019e-19
0.4599 	4.11769e-19
0.4606 	3.47279e-19
0.4613 	2.96568e-19
0.462 	2.45856e-19
0.4627 	1.95145e-19
0.4634 	1.44434e-19
0.4641 	9.37225e-20
0.4648 	4.30112e-20
0.4655 	3.21568e-20
0.4662 	2.74263e-20
0.4669 	2.26957e-20
0.4676 	1.79651e-20
0.4683 	1.32345e-20
0.469 	8.50392e-21
0.4697 	3.77333e-21
0.4704 	2.25576e-21
0.4711 	1.92193e-21
0.4718 	1.5881e-21
0.4725 	1.25427e-21
0.4732 	9.20443e-22
0.4739 	5.86613e-22
0.4746 	2.52784e-22
0.4753 	1.083e-22
0.476 	9.23136e-23
0.4767 	7.63276e-23
0.4774 	6.03417e-23
0.4781 	4.43557e-23
0.4788 	2.83697e-23
0.4795 	1.23837e-23
0.4802 	3.49576e-24
0.4809 	2.98541e-24
0.4816 	2.47505e-24
0.4823 	1.9647e-24
0.483 	1.45435e-24
0.4837 	9.44e-25
0.4844 	4.33649e-25
0.4851 	8.3042e-26
0.4858 	7.0873e-26
0.4865 	5.91813e-26
0.4872 	4.74896e-26
0.4879 	3.57979e-26
0.4886 	2.41062e-26
0.4893 	1.24145e-26
0.49 	2.76024e-27
0.4907 	2.33922e-27
0.4914 	1.97469e-27
0.4921 	1.61016e-27
0.4928 	1.24564e-27
0.4935 	8.8111e-28
0.4942 	5.16583e-28
0.4949 	1.65611e-28
0.4956 	1.38343e-28
0.4963 	1.1688e-28
0.497 	9.54173e-29
0.4977 	7.39546e-29
0.4984 	5.24918e-29
0.4991 	3.10291e-29
0.4998 	9.5664e-30
0.5005 	6.18032e-30
0.5012 	5.21516e-30
0.5019 	4.25e-30
0.5026 	3.28484e-30
0.5033 	2.31968e-30
0.504 	1.35452e-30
0.5047 	3.89362e-31
0.5054 	1.30055e-31
0.5061 	1.09897e-31
0.5068 	8.97387e-32
0.5075 	6.95805e-32
0.5082 	4.94223e-32
0.5089 	2.92641e-32
0.5096 	9.10582e-33
0.5103 	1.12126e-33
0.511 	9.53734e-34
0.5117 	7.86206e-34
0.5124 	6.18679e-34
0.5131 	4.51152e-34
0.5138 	2.83624e-34
0.5145 	1.16097e-34
0.5152 	2.51586e-35
0.5159 	2.21734e-35
0.5166 	1.91881e-35
0.5173 	1.62029e-35
0.518 	1.32176e-35
0.5187 	1.02324e-35
0.5194 	7.24711e-36
0.5201 	4.93943e-36
0.5208 	4.33538e-36
0.5215 	3.74525e-36
0.5222 	3.15513e-36
0.5229 	2.565e-36
0.5236 	1.97487e-36
0.5243 	1.38474e-36
0.525 	8.68865e-37
0.5257 	7.45813e-37
0.5264 	6.37884e-37
0.5271 	5.29955e-37
0.5278 	4.22026e-37
0.5285 	3.14097e-37
0.5292 	2.06168e-37
0.5299 	1.01693e-37
0.5306 	8.57798e-38
0.5313 	7.33561e-38
0.532 	6.09323e-38
0.5327 	4.85086e-38
0.5334 	3.60848e-38
0.5341 	2.3661e-38
0.5348 	1.12373e-38
0.5355 	8.56358e-39
0.5362 	7.40011e-39
0.5369 	6.23664e-39
0.5376 	5.07316e-39
0.5383 	3.90969e-39
0.539 	2.74621e-39
0.5397 	1.58274e-39
0.5404 	1.15672e-39
0.5411 	1.01864e-39
0.5418 	8.80561e-40
0.5425 	7.42483e-40
0.5432 	6.04405e-40
0.5439 	4.66328e-40
0.5446 	3.2825e-40
0.5453 	2.51201e-40
0.546 	2.231e-40
0.5467 	1.95e-40
0.5474 	1.66899e-40
0.5481 	1.38799e-40
0.5488 	1.10699e-40
0.5495 	8.25981e-41
0.5502 	6.25869e-41
0.5509 	5.53691e-41
0.5516 	4.81514e-41
0.5523 	4.09336e-41
0.553 	3.37159e-41
0.5537 	2.64981e-41
0.5544 	1.92803e-41
0.5551 	1.35242e-41
0.5558 	1.1894e-41
0.5565 	1.03084e-41
0.5572 	8.72275e-42
0.5579 	7.13712e-42
0.5586 	5.55149e-42
0.5593 	3.96586e-42
0.56 	2.58216e-42
0.5607 	2.26197e-42
0.5614 	1.97564e-42
0.5621 	1.6893e-42
0.5628 	1.40296e-42
0.5635 	1.11663e-42
0.5642 	8.30289e-43
0.5649 	5.51937e-43
0.5656 	4.86674e-43
0.5663 	4.29687e-43
0.567 	3.727e-43
0.5677 	3.15714e-43
0.5684 	2.58727e-43
0.5691 	2.0174e-43
0.5698 	1.44753e-43
0.5705 	1.24255e-43
0.5712 	1.09859e-43
0.5719 	9.54629e-44
0.5726 	8.10668e-44
0.5733 	6.66707e-44
0.574 	5.22746e-44
0.5747 	3.78784e-44
0.5754 	3.10122e-44
0.5761 	2.72597e-44
0.5768 	2.35072e-44
0.5775 	1.97546e-44
0.5782 	1.60021e-44
0.5789 	1.22496e-44
0.5796 	8.49706e-45
0.5803 	6.40191e-45
0.581 	5.58984e-45
0.5817 	4.77776e-45
0.5824 	3.96568e-45
0.5831 	3.1536e-45
0.5838 	2.34153e-45
0.5845 	1.52945e-45
0.5852 	1.00837e-45
0.5859 	8.76638e-46
0.5866 	7.44905e-46
0.5873 	6.13172e-46
0.588 	4.8144e-46
0.5887 	3.49707e-46
0.5894 	2.17974e-46
0.5901 	1.20493e-46
0.5908 	1.04239e-46
0.5915 	8.83322e-47
0.5922 	7.24253e-47
0.5929 	5.65183e-47
0.5936 	4.06114e-47
0.5943 	2.47044e-47
0.595 	1.12078e-47
0.5957 	9.5723e-48
0.5964 	8.1021e-48
0.5971 	6.63189e-48
0.5978 	5.16168e-48
0.5985 	3.69147e-48
0.5992 	2.22127e-48
0.5999 	8.00191e-49
0.6006 	6.70779e-49
0.6013 	5.67402e-49
0.602 	4.64024e-49
0.6027 	3.60647e-49
0.6034 	2.57269e-49
0.6041 	1.53892e-49
0.6048 	5.05143e-50
0.6055 	3.34036e-50
0.6062 	2.82519e-50
0.6069 	2.31001e-50
0.6076 	1.79483e-50
0.6083 	1.27966e-50
0.609 	7.64483e-51
0.6097 	2.49307e-51
0.6104 	1.03551e-51
0.6111 	8.76432e-52
0.6118 	7.17353e-52
0.6125 	5.58273e-52
0.6132 	3.99194e-52
0.6139 	2.40115e-52
0.6146 	8.10356e-53
0.6153 	1.62466e-53
0.616 	1.37777e-53
0.6167 	1.13089e-53
0.6174 	8.84004e-54
0.6181 	6.37119e-54
0.6188 	3.90234e-54
0.6195 	1.4335e-54
0.6202 	1.02614e-55
0.6209 	8.74578e-56
0.6216 	7.23012e-56
0.6223 	5.71446e-56
0.623 	4.19881e-56
0.6237 	2.68315e-56
0.6244 	1.16749e-56
0.6251 	1.41491e-57
0.6258 	1.21722e-57
0.6265 	1.02185e-57
0.6272 	8.26486e-58
0.6279 	6.31119e-58
0.6286 	4.35753e-58
0.6293 	2.40386e-58
0.63 	8.23483e-59
0.6307 	7.09144e-59
0.6314 	5.95877e-59
0.6321 	4.8261e-59
0.6328 	3.69343e-59
0.6335 	2.56077e-59
0.6342 	1.4281e-59
0.6349 	3.40059e-60
0.6356 	3.04643e-60
0.6363 	2.55814e-60
0.637 	2.06984e-60
0.6377 	1.58155e-60
0.6384 	1.09326e-60
0.6391 	6.04963e-61
0.6398 	1.1667e-61
0.6405 	6.00209e-62
0.6412 	5.05566e-62
0.6419 	4.10922e-62
0.6426 	3.16279e-62
0.6433 	2.21636e-62
0.644 	1.26992e-62
0.6447 	3.2349e-63
0.6454 	8.21183e-64
0.6461 	7.18936e-64
0.6468 	6.1669e-64
0.6475 	5.14443e-64
0.6482 	4.12196e-64
0.6489 	3.0995e-64
0.6496 	2.07703e-64
0.6503 	1.55758e-64
0.651 	1.39618e-64
0.6517 	1.23479e-64
0.6524 	1.07339e-64
0.6531 	9.11998e-65
0.6538 	7.50603e-65
0.6545 	5.89208e-65
0.6552 	4.69452e-65
0.6559 	4.16579e-65
0.6566 	3.63705e-65
0.6573 	3.10831e-65
0.658 	2.57958e-65
0.6587 	2.05084e-65
0.6594 	1.5221e-65
0.6601 	1.09984e-65
0.6608 	9.6497e-66
0.6615 	8.32589e-66
0.6622 	7.00208e-66
0.6629 	5.67826e-66
0.6636 	4.35445e-66
0.6643 	3.03064e-66
0.665 	1.88024e-66
0.6657 	1.62545e-66
0.6664 	1.39511e-66
0.6671 	1.16477e-66
0.6678 	9.34434e-67
0.6685 	7.04094e-67
0.6692 	4.73754e-67
0.6699 	2.50134e-67
0.6706 	2.13028e-67
0.6713 	1.8235e-67
0.672 	1.51672e-67
0.6727 	1.20994e-67
0.6734 	9.03158e-68
0.6741 	5.96377e-68
0.6748 	2.89597e-68
0.6755 	2.20494e-68
0.6762 	1.88396e-68
0.6769 	1.56297e-68
0.6776 	1.24199e-68
0.6783 	9.21007e-69
0.679 	6.00023e-69
0.6797 	2.79039e-69
0.6804 	1.73415e-69
0.6811 	1.4801e-69
0.6818 	1.22604e-69
0.6825 	9.71992e-70
0.6832 	7.1794e-70
0.6839 	4.63889e-70
0.6846 	2.09837e-70
0.6853 	9.7538e-71
0.686 	8.32147e-71
0.6867 	6.88913e-71
0.6874 	5.4568e-71
0.6881 	4.02447e-71
0.6888 	2.59214e-71
0.6895 	1.15981e-71
0.6902 	3.53826e-72
0.6909 	3.01942e-72
0.6916 	2.50059e-72
0.6923 	1.98175e-72
0.693 	1.46292e-72
0.6937 	9.44086e-73
0.6944 	4.25252e-73
0.6951 	6.75837e-74
0.6958 	5.74681e-74
0.6965 	4.77003e-74
0.6972 	3.79326e-74
0.6979 	2.81649e-74
0.6986 	1.83971e-74
0.6993 	8.62941e-75
0.7 	6.1915e-76
