0 	1
0.0007 	1
0.0014 	1
0.0021 	1
0.0028 	1
0.0035 	1
0.0042 	1
0.0049 	1
0.0056 	1
0.0063 	1
0.007 	1
0.0077 	1
0.0084 	1
0.0091 	1
0.0098 	1
0.0105 	1
0.0112 	1
0.0119 	1
0.0126 	1
0.0133 	1
0.014 	1
0.0147 	1
0.0154 	1
0.0161 	1
0.0168 	1
0.0175 	1
0.0182 	1
0.0189 	1
0.0196 	1
0.0203 	1
0.021 	1
0.0217 	1
0.0224 	1
0.0231 	1
0.0238 	1
0.0245 	1
0.0252 	1
0.0259 	1
0.0266 	1
0.0273 	1
0.028 	1
0.0287 	1
0.0294 	1
0.0301 	1
0.0308 	1
0.0315 	1
0.0322 	1
0.0329 	1
0.0336 	1
0.0343 	1
0.035 	1
0.0357 	1
0.0364 	1
0.0371 	1
0.0378 	1
0.0385 	1
0.0392 	1
0.0399 	1
0.0406 	1
0.0413 	1
0.042 	1
0.0427 	1
0.0434 	1
0.0441 	1
0.0448 	1
0.0455 	1
0.0462 	1
0.0469 	1
0.0476 	1
0.0483 	1
0.049 	1
0.0497 	1
0.0504 	1
0.0511 	1
0.0518 	1
0.0525 	1
0.0532 	1
0.0539 	1
0.0546 	1
0.0553 	1
0.056 	1
0.0567 	1
0.0574 	1
0.0581 	1
0.0588 	1
0.0595 	1
0.0602 	1
0.0609 	1
0.0616 	1
0.0623 	1
0.063 	1
0.0637 	1
0.0644 	1
0.0651 	1
0.0658 	1
0.0665 	1
0.0672 	1
0.0679 	1
0.0686 	1
0.0693 	1
0.07 	1
0.0707 	1
0.0714 	1
0.0721 	1
0.0728 	1
0.0735 	1
0.0742 	1
0.0749 	1
0.0756 	1
0.0763 	1
0.077 	1
0.0777 	1
0.0784 	1
0.0791 	1
0.0798 	1
0.0805 	1
0.0812 	1
0.0819 	1
0.0826 	1
0.0833 	1
0.084 	1
0.0847 	1
0.0854 	1
0.0861 	1
0.0868 	1
0.0875 	1
0.0882 	1
0.0889 	1
0.0896 	1
0.0903 	1
0.091 	1
0.0917 	1
0.0924 	1
0.0931 	1
0.0938 	1
0.0945 	1
0.0952 	1
0.0959 	1
0.0966 	1
0.0973 	1
0.098 	1
0.0987 	1
0.0994 	1
0.1001 	1
0.1008 	1
0.1015 	1
0.1022 	1
0.1029 	1
0.1036 	1
0.1043 	1
0.105 	1
0.1057 	1
0.1064 	1
0.1071 	1
0.1078 	1
0.1085 	1
0.1092 	1
0.1099 	1
0.1106 	1
0.1113 	1
0.112 	1
0.1127 	1
0.1134 	1
0.1141 	1
0.1148 	1
0.1155 	1
0.1162 	1
0.1169 	1
0.1176 	1
0.1183 	1
0.119 	1
0.1197 	1
0.1204 	1
0.1211 	1
0.1218 	1
0.1225 	1
0.1232 	1
0.1239 	1
0.1246 	1
0.1253 	1
0.126 	1
0.1267 	1
0.1274 	1
0.1281 	1
0.1288 	1
0.1295 	1
0.1302 	1
0.1309 	1
0.1316 	1
0.1323 	1
0.133 	1
0.1337 	1
0.1344 	1
0.1351 	1
0.1358 	1
0.1365 	1
0.1372 	1
0.1379 	1
0.1386 	1
0.1393 	1
0.14 	1
0.1407 	1
0.1414 	1
0.1421 	1
0.1428 	1
0.1435 	1
0.1442 	1
0.1449 	1
0.1456 	1
0.1463 	1
0.147 	1
0.1477 	1
0.1484 	1
0.1491 	1
0.1498 	1
0.1505 	1
0.1512 	1
0.1519 	1
0.1526 	1
0.1533 	1
0.154 	1
0.1547 	1
0.1554 	1
0.1561 	1
0.1568 	1
0.1575 	1
0.1582 	1
0.1589 	1
0.1596 	1
0.1603 	1
0.161 	1
0.1617 	1
0.1624 	1
0.1631 	1
0.1638 	1
0.1645 	1
0.1652 	1
0.1659 	1
0.1666 	1
0.1673 	1
0.168 	1
0.1687 	1
0.1694 	1
0.1701 	1
0.1708 	1
0.1715 	1
0.1722 	1
0.1729 	1
0.1736 	1
0.1743 	1
0.175 	1
0.1757 	1
0.1764 	1
0.1771 	1
0.1778 	1
0.1785 	1
0.1792 	1
0.1799 	1
0.1806 	1
0.1813 	1
0.182 	1
0.1827 	1
0.1834 	1
0.1841 	1
0.1848 	1
0.1855 	1
0.1862 	1
0.1869 	1
0.1876 	1
0.1883 	1
0.189 	1
0.1897 	1
0.1904 	1
0.1911 	1
0.1918 	1
0.1925 	1
0.1932 	1
0.1939 	1
0.1946 	1
0.1953 	1
0.196 	1
0.1967 	1
0.1974 	1
0.1981 	1
0.1988 	1
0.1995 	1
0.2002 	1
0.2009 	1
0.2016 	1
0.2023 	1
0.203 	1
0.2037 	1
0.2044 	1
0.2051 	1
0.2058 	1
0.2065 	1
0.2072 	1
0.2079 	1
0.2086 	1
0.2093 	1
0.21 	1
0.2107 	1
0.2114 	1
0.2121 	1
0.2128 	1
0.2135 	1
0.2142 	1
0.2149 	1
0.2156 	1
0.2163 	1
0.217 	1
0.2177 	1
0.2184 	1
0.2191 	1
0.2198 	1
0.2205 	1
0.2212 	1
0.2219 	1
0.2226 	1
0.2233 	1
0.224 	1
0.2247 	1
0.2254 	1
0.2261 	1
0.2268 	1
0.2275 	1
0.2282 	1
0.2289 	1
0.2296 	1
0.2303 	1
0.231 	1
0.2317 	1
0.2324 	1
0.2331 	1
0.2338 	1
0.2345 	1
0.2352 	1
0.2359 	1
0.2366 	1
0.2373 	1
0.238 	1
0.2387 	1
0.2394 	1
0.2401 	1
0.2408 	1
0.2415 	1
0.2422 	1
0.2429 	1
0.2436 	1
0.2443 	1
0.245 	1
0.2457 	1
0.2464 	1
0.2471 	1
0.2478 	1
0.2485 	1
0.2492 	1
0.2499 	1
0.2506 	1
0.2513 	1
0.252 	1
0.2527 	1
0.2534 	1
0.2541 	1
0.2548 	1
0.2555 	1
0.2562 	1
0.2569 	1
0.2576 	1
0.2583 	1
0.259 	1
0.2597 	1
0.2604 	1
0.2611 	1
0.2618 	1
0.2625 	1
0.2632 	1
0.2639 	1
0.2646 	1
0.2653 	1
0.266 	1
0.2667 	1
0.2674 	1
0.2681 	1
0.2688 	1
0.2695 	1
0.2702 	1
0.2709 	1
0.2716 	1
0.2723 	1
0.273 	1
0.2737 	1
0.2744 	1
0.2751 	1
0.2758 	1
0.2765 	1
0.2772 	1
0.2779 	1
0.2786 	1
0.2793 	1
0.28 	1
0.2807 	1
0.2814 	1
0.2821 	1
0.2828 	1
0.2835 	1
0.2842 	1
0.2849 	1
0.2856 	1
0.2863 	1
0.287 	1
0.2877 	1
0.2884 	1
0.2891 	1
0.2898 	1
0.2905 	1
0.2912 	1
0.2919 	1
0.2926 	1
0.2933 	1
0.294 	1
0.2947 	1
0.2954 	1
0.2961 	1
0.2968 	1
0.2975 	1
0.2982 	1
0.2989 	1
0.2996 	1
0.3003 	1
0.301 	1
0.3017 	1
0.3024 	1
0.3031 	1
0.3038 	1
0.3045 	1
0.3052 	1
0.3059 	1
0.3066 	1
0.3073 	1
0.308 	1
0.3087 	1
0.3094 	1
0.3101 	1
0.3108 	1
0.3115 	1
0.3122 	1
0.3129 	1
0.3136 	1
0.3143 	1
0.315 	1
0.3157 	1
0.3164 	1
0.3171 	1
0.3178 	1
0.3185 	1
0.3192 	1
0.3199 	1
0.3206 	1
0.3213 	1
0.322 	1
0.3227 	1
0.3234 	1
0.3241 	1
0.3248 	1
0.3255 	1
0.3262 	1
0.3269 	1
0.3276 	1
0.3283 	1
0.329 	1
0.3297 	1
0.3304 	1
0.3311 	1
0.3318 	1
0.3325 	1
0.3332 	1
0.3339 	1
0.3346 	1
0.3353 	1
0.336 	1
0.3367 	1
0.3374 	1
0.3381 	1
0.3388 	1
0.3395 	1
0.3402 	1
0.3409 	1
0.3416 	1
0.3423 	1
0.343 	1
0.3437 	1
0.3444 	1
0.3451 	1
0.3458 	1
0.3465 	1
0.3472 	1
0.3479 	1
0.3486 	1
0.3493 	1
0.35 	1
0.3507 	1
0.3514 	1
0.3521 	1
0.3528 	1
0.3535 	1
0.3542 	1
0.3549 	1
0.3556 	1
0.3563 	1
0.357 	1
0.3577 	1
0.3584 	1
0.3591 	1
0.3598 	1
0.3605 	1
0.3612 	1
0.3619 	1
0.3626 	1
0.3633 	1
0.364 	1
0.3647 	1
0.3654 	1
0.3661 	1
0.3668 	1
0.3675 	1
0.3682 	1
0.3689 	0.999999
0.3696 	0.999999
0.3703 	0.999998
0.371 	0.999998
0.3717 	0.999931
0.3724 	0.999854
0.3731 	0.999778
0.3738 	0.999701
0.3745 	0.999404
0.3752 	0.999116
0.3759 	0.998963
0.3766 	0.995696
0.3773 	0.991334
0.378 	0.986972
0.3787 	0.98261
0.3794 	0.972312
0.3801 	0.959623
0.3808 	0.948718
0.3815 	0.922195
0.3822 	0.88516
0.3829 	0.848124
0.3836 	0.811088
0.3843 	0.753431
0.385 	0.678542
0.3857 	0.603664
0.3864 	0.533825
0.3871 	0.470012
0.3878 	0.406199
0.3885 	0.342387
0.3892 	0.284313
0.3899 	0.234801
0.3906 	0.182675
0.3913 	0.136286
0.392 	0.10343
0.3927 	0.0705751
0.3934 	0.0377196
0.3941 	0.0130125
0.3948 	0.0117554
0.3955 	0.00965331
0.3962 	0.0073187
0.3969 	0.00549591
0.3976 	0.00367312
0.3983 	0.00185033
0.399 	0.000233168
0.3997 	0.000207759
0.4004 	0.000172459
0.4011 	0.00013008
0.4018 	9.91498e-05
0.4025 	6.82198e-05
0.4032 	3.72898e-05
0.4039 	6.35983e-06
0.4046 	4.88356e-06
0.4053 	4.12038e-06
0.406 	3.13254e-06
0.4067 	2.38728e-06
0.4074 	1.67308e-06
0.4081 	9.58875e-07
0.4088 	2.44674e-07
0.4095 	1.10683e-07
0.4102 	9.51114e-08
0.4109 	7.31596e-08
0.4116 	5.56963e-08
0.4123 	3.97758e-08
0.413 	2.38552e-08
0.4137 	7.93469e-09
0.4144 	2.69555e-09
0.4151 	2.36022e-09
0.4158 	1.8414e-09
0.4165 	1.40761e-09
0.4172 	1.03006e-09
0.4179 	6.5251e-10
0.4186 	2.74958e-10
0.4193 	9.62983e-11
0.42 	8.66885e-11
0.4207 	7.06343e-11
0.4214 	5.6431e-11
0.4221 	4.4403e-11
0.4228 	3.2375e-11
0.4235 	2.03471e-11
0.4242 	1.25817e-11
0.4249 	1.12881e-11
0.4256 	9.66834e-12
0.4263 	8.12454e-12
0.427 	6.86106e-12
0.4277 	5.59757e-12
0.4284 	4.33409e-12
0.4291 	3.29547e-12
0.4298 	2.91854e-12
0.4305 	2.48374e-12
0.4312 	2.04853e-12
0.4319 	1.72041e-12
0.4326 	1.39228e-12
0.4333 	1.06416e-12
0.434 	7.6341e-13
0.4347 	6.83731e-13
0.4354 	5.9478e-13
0.4361 	4.99726e-13
0.4368 	4.29602e-13
0.4375 	3.59478e-13
0.4382 	2.89354e-13
0.4389 	2.1923e-13
0.4396 	1.96394e-13
0.4403 	1.73839e-13
0.441 	1.49489e-13
0.4417 	1.30196e-13
0.4424 	1.11524e-13
0.4431 	9.28516e-14
0.4438 	7.41794e-14
0.4445 	6.41223e-14
0.4452 	5.55895e-14
0.4459 	4.62442e-14
0.4466 	3.88666e-14
0.4473 	3.21506e-14
0.448 	2.54345e-14
0.4487 	1.87184e-14
0.4494 	1.51048e-14
0.4501 	1.28988e-14
0.4508 	1.03723e-14
0.4515 	8.33118e-15
0.4522 	6.60558e-15
0.4529 	4.87997e-15
0.4536 	3.15436e-15
0.4543 	2.18912e-15
0.455 	1.88105e-15
0.4557 	1.50993e-15
0.4564 	1.19356e-15
0.4571 	9.40471e-16
0.4578 	6.87383e-16
0.4585 	4.34296e-16
0.4592 	2.66259e-16
0.4599 	2.29606e-16
0.4606 	1.86477e-16
0.4613 	1.46752e-16
0.462 	1.16488e-16
0.4627 	8.62245e-17
0.4634 	5.59605e-17
0.4641 	3.21187e-17
0.4648 	2.75917e-17
0.4655 	2.23941e-17
0.4662 	1.72487e-17
0.4669 	1.35706e-17
0.4676 	9.89252e-18
0.4683 	6.21441e-18
0.469 	2.88286e-18
0.4697 	2.47091e-18
0.4704 	2.00717e-18
0.4711 	1.51084e-18
0.4718 	1.1774e-18
0.4725 	8.43955e-19
0.4732 	5.10513e-19
0.4739 	1.77072e-19
0.4746 	1.41908e-19
0.4753 	1.1594e-19
0.476 	8.68161e-20
0.4767 	6.66028e-20
0.4774 	4.74382e-20
0.4781 	2.82736e-20
0.4788 	9.10908e-21
0.4795 	4.97583e-21
0.4802 	4.10138e-21
0.4809 	3.08381e-21
0.4816 	2.33086e-21
0.4823 	1.665e-21
0.483 	9.99138e-22
0.4837 	3.33276e-22
0.4844 	1.06226e-22
0.4851 	8.90153e-23
0.4858 	6.80803e-23
0.4865 	5.15199e-23
0.4872 	3.77551e-23
0.4879 	2.39904e-23
0.4886 	1.02257e-23
0.4893 	3.52423e-24
0.49 	3.02523e-24
0.4907 	2.37066e-24
0.4914 	1.81657e-24
0.4921 	1.3768e-24
0.4928 	9.37027e-25
0.4935 	4.97256e-25
0.4942 	2.16892e-25
0.4949 	1.86864e-25
0.4956 	1.4744e-25
0.4963 	1.10802e-25
0.497 	8.31853e-26
0.4977 	5.55682e-26
0.4984 	2.79511e-26
0.4991 	6.89677e-27
0.4998 	5.99567e-27
0.5005 	4.80714e-27
0.5012 	3.57915e-27
0.5019 	2.6879e-27
0.5026 	1.79664e-27
0.5033 	9.05387e-28
0.504 	1.04078e-28
0.5047 	9.2421e-29
0.5054 	7.63853e-29
0.5061 	5.7301e-29
0.5068 	4.3744e-29
0.5075 	3.0187e-29
0.5082 	1.663e-29
0.5089 	3.073e-30
0.5096 	2.37894e-30
0.5103 	2.11289e-30
0.511 	1.68198e-30
0.5117 	1.37239e-30
0.5124 	1.07651e-30
0.5131 	7.80626e-31
0.5138 	4.84743e-31
0.5145 	4.10125e-31
0.5152 	3.70941e-31
0.5159 	2.95196e-31
0.5166 	2.40995e-31
0.5173 	1.9374e-31
0.518 	1.46486e-31
0.5187 	9.92315e-32
0.5194 	8.24688e-32
0.5201 	7.90362e-32
0.5208 	6.63413e-32
0.5215 	5.67651e-32
0.5222 	4.91512e-32
0.5229 	4.15373e-32
0.5236 	3.39234e-32
0.5243 	3.06652e-32
0.525 	3.12886e-32
0.5257 	2.7717e-32
0.5264 	2.46351e-32
0.5271 	2.21023e-32
0.5278 	1.95695e-32
0.5285 	1.70367e-32
0.5292 	1.55476e-32
0.5299 	1.57229e-32
0.5306 	1.42118e-32
0.5313 	1.25032e-32
0.532 	1.09653e-32
0.5327 	9.42739e-33
0.5334 	7.88946e-33
0.5341 	6.69045e-33
0.5348 	6.55254e-33
0.5355 	5.90622e-33
0.5362 	5.07565e-33
0.5369 	4.32834e-33
0.5376 	3.58103e-33
0.5383 	2.83372e-33
0.539 	2.15026e-33
0.5397 	2.04955e-33
0.5404 	1.84011e-33
0.5411 	1.55094e-33
0.5418 	1.30135e-33
0.5425 	1.05176e-33
0.5432 	8.02174e-34
0.5439 	5.52584e-34
0.5446 	5.07886e-34
0.5453 	4.55246e-34
0.546 	3.7927e-34
0.5467 	3.14135e-34
0.5474 	2.50179e-34
0.5481 	1.86223e-34
0.5488 	1.22267e-34
0.5495 	1.02685e-34
0.5502 	9.14518e-35
0.5509 	7.54213e-35
0.5516 	6.15675e-35
0.5523 	4.84028e-35
0.553 	3.52381e-35
0.5537 	2.20734e-35
0.5544 	1.64495e-35
0.5551 	1.44486e-35
0.5558 	1.17789e-35
0.5565 	9.45883e-36
0.5572 	7.35577e-36
0.5579 	5.25272e-36
0.5586 	3.14966e-36
0.5593 	2.00529e-36
0.56 	1.72662e-36
0.5607 	1.39084e-36
0.5614 	1.09579e-36
0.5621 	8.45811e-37
0.5628 	5.95831e-37
0.5635 	3.45851e-37
0.5642 	1.80252e-37
0.5649 	1.51048e-37
0.5656 	1.20537e-37
0.5663 	9.29339e-38
0.567 	7.16145e-38
0.5677 	5.0295e-38
0.5684 	2.89755e-38
0.5691 	1.22323e-38
0.5698 	1.00669e-38
0.5705 	8.02058e-39
0.5712 	6.15557e-39
0.5719 	4.86139e-39
0.5726 	3.56721e-39
0.5733 	2.27303e-39
0.574 	1.08768e-39
0.5747 	9.31206e-40
0.5754 	7.93887e-40
0.5761 	6.72391e-40
0.5768 	5.80202e-40
0.5775 	4.88014e-40
0.5782 	3.95825e-40
0.5789 	3.03636e-40
0.5796 	2.66769e-40
0.5803 	2.35585e-40
0.581 	2.08292e-40
0.5817 	1.82167e-40
0.5824 	1.56166e-40
0.5831 	1.30164e-40
0.5838 	1.04163e-40
0.5845 	8.90735e-41
0.5852 	7.67774e-41
0.5859 	6.50293e-41
0.5866 	5.47894e-41
0.5873 	4.50193e-41
0.588 	3.52493e-41
0.5887 	2.54793e-41
0.5894 	2.04117e-41
0.5901 	1.76586e-41
0.5908 	1.46374e-41
0.5915 	1.20248e-41
0.5922 	9.66276e-42
0.5929 	7.30072e-42
0.5936 	4.93868e-42
0.5943 	3.59875e-42
0.595 	3.1922e-42
0.5957 	2.62753e-42
0.5964 	2.12214e-42
0.5971 	1.68162e-42
0.5978 	1.2411e-42
0.5985 	8.00578e-43
0.5992 	5.0819e-43
0.5999 	4.58034e-43
0.6006 	3.78679e-43
0.6013 	3.00677e-43
0.602 	2.35025e-43
0.6027 	1.69372e-43
0.6034 	1.0372e-43
0.6041 	5.25541e-44
0.6048 	4.82155e-44
0.6055 	4.0511e-44
0.6062 	3.18343e-44
0.6069 	2.47277e-44
0.6076 	1.76212e-44
0.6083 	1.05147e-44
0.609 	4.04409e-45
0.6097 	3.76989e-45
0.6104 	3.25988e-45
0.6111 	2.57974e-45
0.6118 	2.02762e-45
0.6125 	1.47549e-45
0.6132 	9.23371e-46
0.6139 	3.71248e-46
0.6146 	3.13846e-46
0.6153 	2.7674e-46
0.616 	2.31909e-46
0.6167 	1.93566e-46
0.6174 	1.55885e-46
0.6181 	1.18204e-46
0.6188 	8.05225e-47
0.6195 	6.44452e-47
0.6202 	5.44784e-47
0.6209 	4.68497e-47
0.6216 	4.04049e-47
0.6223 	3.43242e-47
0.623 	2.82435e-47
0.6237 	2.21628e-47
0.6244 	1.77975e-47
0.6251 	1.44388e-47
0.6258 	1.19016e-47
0.6265 	9.83322e-48
0.6272 	8.04948e-48
0.6279 	6.26574e-48
0.6286 	4.482e-48
0.6293 	3.30898e-48
0.63 	2.69867e-48
0.6307 	2.18646e-48
0.6314 	1.74774e-48
0.6321 	1.38874e-48
0.6328 	1.02974e-48
0.6335 	6.70744e-49
0.6342 	4.18942e-49
0.6349 	3.44036e-49
0.6356 	2.75952e-49
0.6363 	2.15918e-49
0.637 	1.69481e-49
0.6377 	1.23045e-49
0.6384 	7.6609e-50
0.6391 	3.94458e-50
0.6398 	3.26006e-50
0.6405 	2.59958e-50
0.6412 	1.9884e-50
0.6419 	1.54155e-50
0.6426 	1.09469e-50
0.6433 	6.47836e-51
0.644 	2.38286e-51
0.6447 	2.00828e-51
0.6454 	1.61685e-51
0.6461 	1.21911e-51
0.6468 	9.37154e-52
0.6475 	6.55203e-52
0.6482 	3.73251e-52
0.6489 	9.13003e-53
0.6496 	6.67803e-53
0.6503 	5.50941e-53
0.651 	4.1708e-53
0.6517 	3.17257e-53
0.6524 	2.20834e-53
0.6531 	1.24411e-53
0.6538 	2.79882e-54
0.6545 	8.46128e-55
0.6552 	7.34262e-55
0.6559 	5.67003e-55
0.6566 	4.29772e-55
0.6573 	3.01685e-55
0.658 	1.73599e-55
0.6587 	4.55132e-56
0.6594 	2.15206e-57
0.6601 	2.01557e-57
0.6608 	1.59236e-57
0.6615 	1.21545e-57
0.6622 	8.66474e-58
0.6629 	5.17493e-58
0.6636 	1.68513e-58
0.6643 	6.29073e-61
0.665 	6.52522e-61
0.6657 	5.2609e-61
0.6664 	4.06522e-61
0.6671 	2.94355e-61
0.6678 	1.82189e-61
0.6685 	7.0023e-62
0.6692 	1.84599e-65
0.6699 	1.94744e-65
0.6706 	1.51588e-65
0.6713 	1.01263e-65
0.672 	5.4289e-66
0.6727 	7.3151e-67
0.6734 	-3.96588e-66
0.6741 	-7.57337e-66
0.6748 	-7.59084e-66
0.6755 	-7.23802e-66
0.6762 	-6.75319e-66
0.6769 	-6.33456e-66
0.6776 	-5.91592e-66
0.6783 	-5.49729e-66
0.679 	-5.10846e-66
0.6797 	-5.02122e-66
0.6804 	-4.7257e-66
0.6811 	-4.27725e-66
0.6818 	-3.88774e-66
0.6825 	-3.49823e-66
0.6832 	-3.10872e-66
0.6839 	-2.71921e-66
0.6846 	-2.60562e-66
0.6853 	-2.42358e-66
0.686 	-2.12968e-66
0.6867 	-1.8726e-66
0.6874 	-1.61914e-66
0.6881 	-1.36569e-66
0.6888 	-1.11224e-66
0.6895 	-1.01307e-66
0.6902 	-9.29247e-67
0.6909 	-7.89754e-67
0.6916 	-6.6772e-67
0.6923 	-5.50977e-67
0.693 	-4.34235e-67
0.6937 	-3.17492e-67
0.6944 	-2.62736e-67
0.6951 	-2.36836e-67
0.6958 	-1.93435e-67
0.6965 	-1.52667e-67
0.6972 	-1.13483e-67
0.6979 	-7.42993e-68
0.6986 	-3.51152e-68
0.6993 	-1.06953e-68
0.7 	0
