0 	1
0.0007 	1
0.0014 	1
0.0021 	1
0.0028 	1
0.0035 	1
0.0042 	1
0.0049 	1
0.0056 	1
0.0063 	1
0.007 	1
0.0077 	1
0.0084 	1
0.0091 	1
0.0098 	1
0.0105 	1
0.0112 	1
0.0119 	1
0.0126 	1
0.0133 	1
0.014 	1
0.0147 	1
0.0154 	1
0.0161 	1
0.0168 	1
0.0175 	1
0.0182 	1
0.0189 	1
0.0196 	1
0.0203 	1
0.021 	1
0.0217 	1
0.0224 	1
0.0231 	1
0.0238 	1
0.0245 	1
0.0252 	1
0.0259 	1
0.0266 	1
0.0273 	1
0.028 	1
0.0287 	1
0.0294 	1
0.0301 	1
0.0308 	1
0.0315 	1
0.0322 	1
0.0329 	1
0.0336 	1
0.0343 	1
0.035 	1
0.0357 	1
0.0364 	1
0.0371 	1
0.0378 	1
0.0385 	1
0.0392 	1
0.0399 	1
0.0406 	1
0.0413 	1
0.042 	1
0.0427 	1
0.0434 	1
0.0441 	1
0.0448 	1
0.0455 	1
0.0462 	1
0.0469 	1
0.0476 	1
0.0483 	1
0.049 	1
0.0497 	1
0.0504 	1
0.0511 	1
0.0518 	1
0.0525 	1
0.0532 	1
0.0539 	1
0.0546 	1
0.0553 	1
0.056 	1
0.0567 	1
0.0574 	1
0.0581 	1
0.0588 	1
0.0595 	1
0.0602 	1
0.0609 	1
0.0616 	1
0.0623 	1
0.063 	1
0.0637 	1
0.0644 	1
0.0651 	1
0.0658 	1
0.0665 	1
0.0672 	1
0.0679 	1
0.0686 	1
0.0693 	1
0.07 	1
0.0707 	1
0.0714 	1
0.0721 	1
0.0728 	1
0.0735 	1
0.0742 	1
0.0749 	1
0.0756 	1
0.0763 	1
0.077 	1
0.0777 	1
0.0784 	1
0.0791 	1
0.0798 	1
0.0805 	1
0.0812 	1
0.0819 	1
0.0826 	1
0.0833 	1
0.084 	1
0.0847 	1
0.0854 	1
0.0861 	1
0.0868 	1
0.0875 	1
0.0882 	1
0.0889 	1
0.0896 	1
0.0903 	1
0.091 	1
0.0917 	1
0.0924 	1
0.0931 	1
0.0938 	1
0.0945 	1
0.0952 	1
0.0959 	1
0.0966 	1
0.0973 	1
0.098 	1
0.0987 	1
0.0994 	1
0.1001 	1
0.1008 	1
0.1015 	1
0.1022 	1
0.1029 	1
0.1036 	1
0.1043 	1
0.105 	1
0.1057 	1
0.1064 	1
0.1071 	1
0.1078 	1
0.1085 	1
0.1092 	1
0.1099 	1
0.1106 	1
0.1113 	1
0.112 	1
0.1127 	1
0.1134 	1
0.1141 	1
0.1148 	1
0.1155 	1
0.1162 	1
0.1169 	1
0.1176 	1
0.1183 	1
0.119 	1
0.1197 	1
0.1204 	1
0.1211 	1
0.1218 	1
0.1225 	1
0.1232 	1
0.1239 	1
0.1246 	1
0.1253 	1
0.126 	1
0.1267 	1
0.1274 	1
0.1281 	1
0.1288 	1
0.1295 	1
0.1302 	1
0.1309 	1
0.1316 	1
0.1323 	1
0.133 	1
0.1337 	1
0.1344 	1
0.1351 	1
0.1358 	1
0.1365 	1
0.1372 	1
0.1379 	1
0.1386 	1
0.1393 	1
0.14 	1
0.1407 	1
0.1414 	1
0.1421 	1
0.1428 	1
0.1435 	1
0.1442 	1
0.1449 	1
0.1456 	1
0.1463 	1
0.147 	1
0.1477 	1
0.1484 	1
0.1491 	1
0.1498 	1
0.1505 	1
0.1512 	1
0.1519 	1
0.1526 	1
0.1533 	1
0.154 	1
0.1547 	1
0.1554 	1
0.1561 	1
0.1568 	1
0.1575 	1
0.1582 	1
0.1589 	1
0.1596 	1
0.1603 	1
0.161 	1
0.1617 	1
0.1624 	1
0.1631 	1
0.1638 	1
0.1645 	1
0.1652 	1
0.1659 	1
0.1666 	1
0.1673 	1
0.168 	1
0.1687 	1
0.1694 	1
0.1701 	1
0.1708 	1
0.1715 	1
0.1722 	1
0.1729 	1
0.1736 	1
0.1743 	1
0.175 	1
0.1757 	1
0.1764 	1
0.1771 	1
0.1778 	1
0.1785 	1
0.1792 	1
0.1799 	1
0.1806 	1
0.1813 	1
0.182 	1
0.1827 	1
0.1834 	1
0.1841 	1
0.1848 	1
0.1855 	1
0.1862 	1
0.1869 	1
0.1876 	1
0.1883 	1
0.189 	1
0.1897 	1
0.1904 	1
0.1911 	1
0.1918 	1
0.1925 	1
0.1932 	1
0.1939 	1
0.1946 	1
0.1953 	1
0.196 	1
0.1967 	1
0.1974 	1
0.1981 	1
0.1988 	1
0.1995 	1
0.2002 	1
0.2009 	1
0.2016 	1
0.2023 	1
0.203 	1
0.2037 	1
0.2044 	1
0.2051 	1
0.2058 	1
0.2065 	1
0.2072 	1
0.2079 	1
0.2086 	1
0.2093 	1
0.21 	1
0.2107 	1
0.2114 	1
0.2121 	1
0.2128 	1
0.2135 	1
0.2142 	1
0.2149 	1
0.2156 	1
0.2163 	1
0.217 	1
0.2177 	1
0.2184 	1
0.2191 	1
0.2198 	1
0.2205 	1
0.2212 	1
0.2219 	1
0.2226 	1
0.2233 	1
0.224 	1
0.2247 	1
0.2254 	1
0.2261 	1
0.2268 	1
0.2275 	1
0.2282 	1
0.2289 	1
0.2296 	1
0.2303 	1
0.231 	1
0.2317 	1
0.2324 	1
0.2331 	1
0.2338 	1
0.2345 	1
0.2352 	1
0.2359 	1
0.2366 	1
0.2373 	1
0.238 	1
0.2387 	1
0.2394 	1
0.2401 	1
0.2408 	1
0.2415 	1
0.2422 	1
0.2429 	1
0.2436 	1
0.2443 	1
0.245 	1
0.2457 	1
0.2464 	1
0.2471 	1
0.2478 	1
0.2485 	1
0.2492 	1
0.2499 	1
0.2506 	1
0.2513 	1
0.252 	1
0.2527 	1
0.2534 	1
0.2541 	1
0.2548 	1
0.2555 	1
0.2562 	1
0.2569 	1
0.2576 	1
0.2583 	1
0.259 	1
0.2597 	1
0.2604 	1
0.2611 	1
0.2618 	1
0.2625 	1
0.2632 	1
0.2639 	1
0.2646 	1
0.2653 	1
0.266 	1
0.2667 	1
0.2674 	1
0.2681 	1
0.2688 	1
0.2695 	1
0.2702 	1
0.2709 	1
0.2716 	1
0.2723 	1
0.273 	1
0.2737 	1
0.2744 	1
0.2751 	1
0.2758 	1
0.2765 	1
0.2772 	1
0.2779 	1
0.2786 	1
0.2793 	1
0.28 	1
0.2807 	1
0.2814 	1
0.2821 	1
0.2828 	1
0.2835 	1
0.2842 	1
0.2849 	1
0.2856 	1
0.2863 	1
0.287 	1
0.2877 	1
0.2884 	1
0.2891 	1
0.2898 	1
0.2905 	1
0.2912 	1
0.2919 	1
0.2926 	1
0.2933 	1
0.294 	1
0.2947 	1
0.2954 	1
0.2961 	1
0.2968 	1
0.2975 	1
0.2982 	1
0.2989 	1
0.2996 	1
0.3003 	1
0.301 	1
0.3017 	1
0.3024 	1
0.3031 	1
0.3038 	1
0.3045 	1
0.3052 	1
0.3059 	1
0.3066 	1
0.3073 	1
0.308 	1
0.3087 	1
0.3094 	1
0.3101 	1
0.3108 	1
0.3115 	1
0.3122 	1
0.3129 	1
0.3136 	1
0.3143 	1
0.315 	1
0.3157 	1
0.3164 	1
0.3171 	1
0.3178 	1
0.3185 	1
0.3192 	1
0.3199 	1
0.3206 	1
0.3213 	1
0.322 	1
0.3227 	1
0.3234 	1
0.3241 	1
0.3248 	1
0.3255 	1
0.3262 	1
0.3269 	1
0.3276 	1
0.3283 	1
0.329 	1
0.3297 	1
0.3304 	1
0.3311 	1
0.3318 	1
0.3325 	1
0.3332 	1
0.3339 	1
0.3346 	1
0.3353 	1
0.336 	1
0.3367 	1
0.3374 	1
0.3381 	1
0.3388 	1
0.3395 	1
0.3402 	1
0.3409 	1
0.3416 	1
0.3423 	1
0.343 	1
0.3437 	1
0.3444 	1
0.3451 	1
0.3458 	1
0.3465 	1
0.3472 	1
0.3479 	1
0.3486 	1
0.3493 	1
0.35 	1
0.3507 	1
0.3514 	1
0.3521 	1
0.3528 	1
0.3535 	1
0.3542 	1
0.3549 	1
0.3556 	1
0.3563 	1
0.357 	1
0.3577 	1
0.3584 	1
0.3591 	1
0.3598 	1
0.3605 	1
0.3612 	1
0.3619 	1
0.3626 	1
0.3633 	1
0.364 	1
0.3647 	1
0.3654 	1
0.3661 	1
0.3668 	1
0.3675 	1
0.3682 	1
0.3689 	1
0.3696 	1
0.3703 	1
0.371 	1
0.3717 	1
0.3724 	1
0.3731 	1
0.3738 	1
0.3745 	1
0.3752 	1
0.3759 	1
0.3766 	1
0.3773 	1
0.378 	1
0.3787 	1
0.3794 	1
0.3801 	1
0.3808 	1
0.3815 	1
0.3822 	1
0.3829 	1
0.3836 	1
0.3843 	1
0.385 	1
0.3857 	1
0.3864 	1
0.3871 	1
0.3878 	1
0.3885 	1
0.3892 	1
0.3899 	1
0.3906 	1
0.3913 	1
0.392 	1
0.3927 	1
0.3934 	1
0.3941 	1
0.3948 	1
0.3955 	1
0.3962 	1
0.3969 	1
0.3976 	1
0.3983 	1
0.399 	1
0.3997 	1
0.4004 	1
0.4011 	1
0.4018 	1
0.4025 	1
0.4032 	1
0.4039 	1
0.4046 	1
0.4053 	0.999999
0.406 	0.999999
0.4067 	0.999999
0.4074 	0.999999
0.4081 	0.999998
0.4088 	0.999996
0.4095 	0.999994
0.4102 	0.999992
0.4109 	0.99999
0.4116 	0.999989
0.4123 	0.999987
0.413 	0.999906
0.4137 	0.999785
0.4144 	0.999664
0.4151 	0.999547
0.4158 	0.99946
0.4165 	0.999373
0.4172 	0.999286
0.4179 	0.995801
0.4186 	0.989248
0.4193 	0.982695
0.42 	0.976142
0.4207 	0.970584
0.4214 	0.965026
0.4221 	0.959468
0.4228 	0.93203
0.4235 	0.872263
0.4242 	0.812497
0.4249 	0.75273
0.4256 	0.695451
0.4263 	0.638586
0.427 	0.581721
0.4277 	0.520874
0.4284 	0.450069
0.4291 	0.379264
0.4298 	0.308459
0.4305 	0.238656
0.4312 	0.169254
0.4319 	0.0998513
0.4326 	0.0399507
0.4333 	0.0333808
0.434 	0.028466
0.4347 	0.0235513
0.4354 	0.0183153
0.4361 	0.0128386
0.4368 	0.00736182
0.4375 	0.00223309
0.4382 	0.00137137
0.4389 	0.00116441
0.4396 	0.000957444
0.4403 	0.00074116
0.441 	0.000512451
0.4417 	0.000283742
0.4424 	5.90552e-05
0.4431 	9.25707e-06
0.4438 	7.83421e-06
0.4445 	6.41134e-06
0.4452 	4.9688e-06
0.4459 	3.47707e-06
0.4466 	1.98533e-06
0.4473 	4.93599e-07
0.448 	4.58824e-09
0.4487 	3.88388e-09
0.4494 	3.17953e-09
0.4501 	2.47387e-09
0.4508 	1.76044e-09
0.4515 	1.04701e-09
0.4522 	3.33582e-10
0.4529 	4.18018e-12
0.4536 	4.8185e-12
0.4543 	5.45681e-12
0.455 	6.09512e-12
0.4557 	6.73614e-12
0.4564 	7.37716e-12
0.4571 	8.01818e-12
0.4578 	8.75314e-12
0.4585 	9.59036e-12
0.4592 	1.04276e-11
0.4599 	1.12648e-11
0.4606 	1.21104e-11
0.4613 	1.29574e-11
0.462 	1.38044e-11
0.4627 	1.44788e-11
0.4634 	1.46502e-11
0.4641 	1.48216e-11
0.4648 	1.49929e-11
0.4655 	1.51721e-11
0.4662 	1.53544e-11
0.4669 	1.55366e-11
0.4676 	1.56939e-11
0.4683 	1.56932e-11
0.469 	1.5686e-11
0.4697 	1.56789e-11
0.4704 	1.56754e-11
0.4711 	1.56746e-11
0.4718 	1.56737e-11
0.4725 	1.56605e-11
0.4732 	1.55298e-11
0.4739 	1.53823e-11
0.4746 	1.52349e-11
0.4753 	1.50928e-11
0.476 	1.4958e-11
0.4767 	1.48232e-11
0.4774 	1.46855e-11
0.4781 	1.44534e-11
0.4788 	1.41969e-11
0.4795 	1.39404e-11
0.4802 	1.36879e-11
0.4809 	1.34457e-11
0.4816 	1.32036e-11
0.4823 	1.29614e-11
0.483 	1.26078e-11
0.4837 	1.22086e-11
0.4844 	1.18095e-11
0.4851 	1.14121e-11
0.4858 	1.1025e-11
0.4865 	1.0638e-11
0.4872 	1.0251e-11
0.4879 	9.76513e-12
0.4886 	9.21489e-12
0.4893 	8.66465e-12
0.49 	8.1144e-12
0.4907 	7.5684e-12
0.4914 	7.02239e-12
0.4921 	6.47639e-12
0.4928 	5.9284e-12
0.4935 	5.41247e-12
0.4942 	4.89654e-12
0.4949 	4.38062e-12
0.4956 	3.86054e-12
0.4963 	3.33978e-12
0.497 	2.81901e-12
0.4977 	2.35361e-12
0.4984 	2.0879e-12
0.4991 	1.8222e-12
0.4998 	1.55649e-12
0.5005 	1.28686e-12
0.5012 	1.01567e-12
0.5019 	7.4447e-13
0.5026 	5.01164e-13
0.5033 	4.298e-13
0.504 	3.66485e-13
0.5047 	3.03169e-13
0.5054 	2.38946e-13
0.5061 	1.74041e-13
0.5068 	1.09136e-13
0.5075 	4.91719e-14
0.5082 	3.62333e-14
0.5089 	3.06181e-14
0.5096 	2.50029e-14
0.5103 	1.9343e-14
0.511 	1.36232e-14
0.5117 	7.90349e-15
0.5124 	2.33456e-15
0.5131 	1.03844e-15
0.5138 	8.7927e-16
0.5145 	7.20103e-16
0.5152 	5.60318e-16
0.5159 	3.9899e-16
0.5166 	2.37662e-16
0.5173 	7.63333e-17
0.518 	2.37062e-17
0.5187 	2.03261e-17
0.5194 	1.6946e-17
0.5201 	1.3537e-17
0.5208 	9.95386e-18
0.5215 	6.37075e-18
0.5222 	2.78764e-18
0.5229 	1.07454e-18
0.5236 	9.25271e-19
0.5243 	7.76004e-19
0.525 	6.26736e-19
0.5257 	4.63039e-19
0.5264 	2.99341e-19
0.5271 	1.35643e-19
0.5278 	3.41542e-20
0.5285 	2.94628e-20
0.5292 	2.47713e-20
0.5299 	2.00798e-20
0.5306 	1.48914e-20
0.5313 	9.62023e-21
0.532 	4.34901e-21
0.5327 	3.34752e-22
0.5334 	2.90099e-22
0.5341 	2.45446e-22
0.5348 	2.00794e-22
0.5355 	1.51132e-22
0.5362 	9.94666e-23
0.5369 	4.7801e-23
0.5376 	3.09516e-24
0.5383 	7.86903e-25
0.539 	7.2342e-25
0.5397 	6.59936e-25
0.5404 	5.41074e-25
0.5411 	3.80677e-25
0.5418 	2.2028e-25
0.5425 	7.01395e-26
0.5432 	4.91041e-26
0.5439 	5.29312e-26
0.5446 	5.67583e-26
0.5453 	5.33714e-26
0.546 	4.03657e-26
0.5467 	2.736e-26
0.5474 	1.45473e-26
0.5481 	1.14002e-26
0.5488 	1.22469e-26
0.5495 	1.30936e-26
0.5502 	1.28014e-26
0.5509 	9.66163e-27
0.5516 	6.52191e-27
0.5523 	3.38219e-27
0.553 	2.06262e-27
0.5537 	2.13236e-27
0.5544 	2.2021e-27
0.5551 	2.18248e-27
0.5558 	1.62666e-27
0.5565 	1.07085e-27
0.5572 	5.15038e-28
0.5579 	1.90445e-28
0.5586 	1.86626e-28
0.5593 	1.82808e-28
0.56 	1.78989e-28
0.5607 	1.32593e-28
0.5614 	8.6196e-29
0.5621 	3.97994e-29
0.5628 	6.5473e-30
0.5635 	6.02057e-30
0.5642 	5.49383e-30
0.5649 	4.96709e-30
0.5656 	3.79737e-30
0.5663 	2.52048e-30
0.567 	1.24358e-30
0.5677 	1.82363e-31
0.5684 	1.64032e-31
0.5691 	1.457e-31
0.5698 	1.27369e-31
0.5705 	1.07739e-31
0.5712 	8.75892e-32
0.5719 	6.74396e-32
0.5726 	4.88383e-32
0.5733 	4.35809e-32
0.574 	3.91984e-32
0.5747 	3.48158e-32
0.5754 	3.06665e-32
0.5761 	2.6692e-32
0.5768 	2.27175e-32
0.5775 	1.88226e-32
0.5782 	1.64817e-32
0.5789 	1.44989e-32
0.5796 	1.25162e-32
0.5803 	1.06281e-32
0.581 	8.86645e-33
0.5817 	7.10476e-33
0.5824 	5.37385e-33
0.5831 	4.47143e-33
0.5838 	3.83324e-33
0.5845 	3.19505e-33
0.5852 	2.58674e-33
0.5859 	2.05312e-33
0.5866 	1.5195e-33
0.5873 	9.85885e-34
0.588 	7.46853e-34
0.5887 	6.30002e-34
0.5894 	5.13151e-34
0.5901 	4.00364e-34
0.5908 	3.11966e-34
0.5915 	2.23567e-34
0.5922 	1.35169e-34
0.5929 	9.30869e-35
0.5936 	8.01778e-35
0.5943 	6.72686e-35
0.595 	5.43595e-35
0.5957 	4.47927e-35
0.5964 	3.52258e-35
0.5971 	2.5659e-35
0.5978 	1.96965e-35
0.5985 	1.72743e-35
0.5992 	1.48521e-35
0.5999 	1.24299e-35
0.6006 	1.04909e-35
0.6013 	8.63232e-36
0.602 	6.77377e-36
0.6027 	5.24599e-36
0.6034 	4.6061e-36
0.6041 	3.96622e-36
0.6048 	3.32633e-36
0.6055 	2.70898e-36
0.6062 	2.10065e-36
0.6069 	1.49231e-36
0.6076 	9.41735e-37
0.6083 	8.01265e-37
0.609 	6.88171e-37
0.6097 	5.75076e-37
0.6104 	4.53266e-37
0.6111 	3.24919e-37
0.6118 	1.96572e-37
0.6125 	7.61691e-38
0.6132 	5.08652e-38
0.6139 	4.51469e-38
0.6146 	3.94286e-38
0.6153 	3.20441e-38
0.616 	2.24382e-38
0.6167 	1.28322e-38
0.6174 	3.41297e-39
0.6181 	6.96286e-40
0.6188 	6.67755e-40
0.6195 	6.39223e-40
0.6202 	5.71433e-40
0.6209 	4.05499e-40
0.6216 	2.39565e-40
0.6223 	7.36314e-41
0.623 	1.20738e-42
0.6237 	1.29558e-42
0.6244 	1.38379e-42
0.6251 	1.40381e-42
0.6258 	1.0147e-42
0.6265 	6.2559e-43
0.6272 	2.36481e-43
0.6279 	2.07367e-46
0.6286 	2.42628e-46
0.6293 	2.77889e-46
0.63 	3.13151e-46
0.6307 	2.38018e-46
0.6314 	1.62885e-46
0.6321 	8.77526e-47
0.6328 	3.06499e-47
0.6335 	2.9992e-47
0.6342 	2.93342e-47
0.6349 	2.86763e-47
0.6356 	2.66568e-47
0.6363 	2.44102e-47
0.637 	2.21637e-47
0.6377 	2.03972e-47
0.6384 	1.94085e-47
0.6391 	1.84198e-47
0.6398 	1.74311e-47
0.6405 	1.58729e-47
0.6412 	1.4087e-47
0.6419 	1.2301e-47
0.6426 	1.07557e-47
0.6433 	9.84957e-48
0.644 	8.96477e-48
0.6447 	8.07997e-48
0.6454 	7.03198e-48
0.6461 	5.86159e-48
0.6468 	4.6912e-48
0.6475 	3.62195e-48
0.6482 	3.16439e-48
0.6489 	2.78623e-48
0.6496 	2.40807e-48
0.6503 	1.99842e-48
0.651 	1.5468e-48
0.6517 	1.09518e-48
0.6524 	6.58827e-49
0.6531 	5.14316e-49
0.6538 	4.45517e-49
0.6545 	3.76718e-49
0.6552 	3.04272e-49
0.6559 	2.2271e-49
0.6566 	1.41147e-49
0.6573 	5.95849e-50
0.658 	2.99538e-50
0.6587 	2.60842e-50
0.6594 	2.22146e-50
0.6601 	1.81738e-50
0.6608 	1.31059e-50
0.6615 	8.03803e-51
0.6622 	2.97014e-51
0.6629 	3.81107e-52
0.6636 	3.42437e-52
0.6643 	3.03768e-52
0.665 	2.65098e-52
0.6657 	1.93386e-52
0.6664 	1.21673e-52
0.6671 	4.99606e-53
0.6678 	6.46956e-55
0.6685 	6.19591e-55
0.6692 	5.92225e-55
0.6699 	5.6486e-55
0.6706 	4.31847e-55
0.6713 	2.81227e-55
0.672 	1.30606e-55
0.6727 	9.67503e-59
0.6734 	1.03459e-58
0.6741 	1.10167e-58
0.6748 	1.16876e-58
0.6755 	9.61833e-59
0.6762 	6.45306e-59
0.6769 	3.28779e-59
0.6776 	2.46082e-60
0.6783 	1.83672e-63
0.679 	1.9746e-63
0.6797 	2.11248e-63
0.6804 	1.2862e-63
0.6811 	-2.63196e-64
0.6818 	-1.81259e-63
0.6825 	-3.34943e-63
0.6832 	-4.12535e-63
0.6839 	-4.68678e-63
0.6846 	-5.24822e-63
0.6853 	-5.74837e-63
0.686 	-6.16681e-63
0.6867 	-6.58525e-63
0.6874 	-6.99701e-63
0.6881 	-7.30885e-63
0.6888 	-7.60296e-63
0.6895 	-7.89706e-63
0.6902 	-8.16122e-63
0.6909 	-8.35052e-63
0.6916 	-8.53983e-63
0.6923 	-8.72914e-63
0.693 	-8.60891e-63
0.6937 	-8.31999e-63
0.6944 	-8.03107e-63
0.6951 	-7.73953e-63
0.6958 	-7.43227e-63
0.6965 	-7.12501e-63
0.6972 	-6.81775e-63
0.6979 	-5.68869e-63
0.6986 	-3.79246e-63
0.6993 	-1.89623e-63
0.7 	0
