0 	1
0.0007 	1
0.0014 	1
0.0021 	1
0.0028 	1
0.0035 	1
0.0042 	1
0.0049 	1
0.0056 	1
0.0063 	1
0.007 	1
0.0077 	1
0.0084 	1
0.0091 	1
0.0098 	1
0.0105 	1
0.0112 	1
0.0119 	1
0.0126 	1
0.0133 	1
0.014 	1
0.0147 	1
0.0154 	1
0.0161 	1
0.0168 	1
0.0175 	1
0.0182 	1
0.0189 	1
0.0196 	1
0.0203 	1
0.021 	1
0.0217 	1
0.0224 	1
0.0231 	1
0.0238 	1
0.0245 	1
0.0252 	1
0.0259 	1
0.0266 	1
0.0273 	1
0.028 	1
0.0287 	1
0.0294 	1
0.0301 	1
0.0308 	1
0.0315 	1
0.0322 	1
0.0329 	1
0.0336 	1
0.0343 	1
0.035 	1
0.0357 	1
0.0364 	1
0.0371 	1
0.0378 	1
0.0385 	1
0.0392 	1
0.0399 	1
0.0406 	1
0.0413 	1
0.042 	1
0.0427 	1
0.0434 	1
0.0441 	1
0.0448 	1
0.0455 	1
0.0462 	1
0.0469 	1
0.0476 	1
0.0483 	1
0.049 	1
0.0497 	1
0.0504 	1
0.0511 	1
0.0518 	1
0.0525 	1
0.0532 	1
0.0539 	1
0.0546 	1
0.0553 	1
0.056 	1
0.0567 	1
0.0574 	1
0.0581 	1
0.0588 	1
0.0595 	1
0.0602 	1
0.0609 	1
0.0616 	1
0.0623 	1
0.063 	1
0.0637 	1
0.0644 	1
0.0651 	1
0.0658 	1
0.0665 	1
0.0672 	1
0.0679 	1
0.0686 	1
0.0693 	1
0.07 	1
0.0707 	1
0.0714 	1
0.0721 	1
0.0728 	1
0.0735 	1
0.0742 	1
0.0749 	1
0.0756 	1
0.0763 	1
0.077 	1
0.0777 	1
0.0784 	1
0.0791 	1
0.0798 	1
0.0805 	1
0.0812 	1
0.0819 	1
0.0826 	1
0.0833 	1
0.084 	1
0.0847 	1
0.0854 	1
0.0861 	1
0.0868 	1
0.0875 	1
0.0882 	1
0.0889 	1
0.0896 	1
0.0903 	1
0.091 	1
0.0917 	1
0.0924 	1
0.0931 	1
0.0938 	1
0.0945 	1
0.0952 	1
0.0959 	1
0.0966 	1
0.0973 	1
0.098 	1
0.0987 	1
0.0994 	1
0.1001 	1
0.1008 	1
0.1015 	1
0.1022 	1
0.1029 	1
0.1036 	1
0.1043 	1
0.105 	1
0.1057 	1
0.1064 	1
0.1071 	1
0.1078 	1
0.1085 	1
0.1092 	1
0.1099 	1
0.1106 	1
0.1113 	1
0.112 	1
0.1127 	1
0.1134 	1
0.1141 	1
0.1148 	1
0.1155 	1
0.1162 	1
0.1169 	1
0.1176 	1
0.1183 	1
0.119 	1
0.1197 	1
0.1204 	1
0.1211 	1
0.1218 	1
0.1225 	1
0.1232 	1
0.1239 	1
0.1246 	1
0.1253 	1
0.126 	1
0.1267 	1
0.1274 	1
0.1281 	1
0.1288 	1
0.1295 	1
0.1302 	1
0.1309 	1
0.1316 	1
0.1323 	1
0.133 	1
0.1337 	1
0.1344 	1
0.1351 	1
0.1358 	1
0.1365 	1
0.1372 	1
0.1379 	1
0.1386 	1
0.1393 	1
0.14 	1
0.1407 	1
0.1414 	1
0.1421 	1
0.1428 	1
0.1435 	1
0.1442 	1
0.1449 	1
0.1456 	1
0.1463 	1
0.147 	1
0.1477 	1
0.1484 	1
0.1491 	1
0.1498 	1
0.1505 	1
0.1512 	1
0.1519 	1
0.1526 	1
0.1533 	1
0.154 	1
0.1547 	1
0.1554 	1
0.1561 	1
0.1568 	1
0.1575 	1
0.1582 	1
0.1589 	1
0.1596 	1
0.1603 	1
0.161 	1
0.1617 	1
0.1624 	1
0.1631 	1
0.1638 	1
0.1645 	1
0.1652 	1
0.1659 	1
0.1666 	1
0.1673 	1
0.168 	1
0.1687 	1
0.1694 	1
0.1701 	1
0.1708 	1
0.1715 	1
0.1722 	1
0.1729 	1
0.1736 	1
0.1743 	1
0.175 	1
0.1757 	1
0.1764 	1
0.1771 	1
0.1778 	1
0.1785 	1
0.1792 	1
0.1799 	1
0.1806 	1
0.1813 	1
0.182 	1
0.1827 	1
0.1834 	1
0.1841 	1
0.1848 	1
0.1855 	1
0.1862 	1
0.1869 	1
0.1876 	1
0.1883 	1
0.189 	1
0.1897 	1
0.1904 	1
0.1911 	1
0.1918 	1
0.1925 	1
0.1932 	1
0.1939 	1
0.1946 	1
0.1953 	1
0.196 	1
0.1967 	1
0.1974 	1
0.1981 	1
0.1988 	1
0.1995 	1
0.2002 	1
0.2009 	1
0.2016 	1
0.2023 	1
0.203 	1
0.2037 	1
0.2044 	1
0.2051 	1
0.2058 	1
0.2065 	1
0.2072 	1
0.2079 	1
0.2086 	1
0.2093 	1
0.21 	1
0.2107 	1
0.2114 	1
0.2121 	1
0.2128 	1
0.2135 	1
0.2142 	1
0.2149 	1
0.2156 	1
0.2163 	1
0.217 	1
0.2177 	1
0.2184 	1
0.2191 	1
0.2198 	1
0.2205 	1
0.2212 	1
0.2219 	1
0.2226 	1
0.2233 	1
0.224 	1
0.2247 	1
0.2254 	1
0.2261 	1
0.2268 	1
0.2275 	1
0.2282 	1
0.2289 	1
0.2296 	1
0.2303 	1
0.231 	1
0.2317 	1
0.2324 	1
0.2331 	1
0.2338 	1
0.2345 	1
0.2352 	1
0.2359 	1
0.2366 	1
0.2373 	1
0.238 	1
0.2387 	1
0.2394 	1
0.2401 	1
0.2408 	1
0.2415 	1
0.2422 	1
0.2429 	1
0.2436 	1
0.2443 	1
0.245 	1
0.2457 	1
0.2464 	1
0.2471 	1
0.2478 	1
0.2485 	1
0.2492 	1
0.2499 	1
0.2506 	1
0.2513 	1
0.252 	1
0.2527 	1
0.2534 	1
0.2541 	1
0.2548 	1
0.2555 	1
0.2562 	1
0.2569 	1
0.2576 	1
0.2583 	1
0.259 	1
0.2597 	1
0.2604 	1
0.2611 	1
0.2618 	1
0.2625 	1
0.2632 	1
0.2639 	1
0.2646 	1
0.2653 	1
0.266 	1
0.2667 	1
0.2674 	1
0.2681 	1
0.2688 	1
0.2695 	1
0.2702 	1
0.2709 	1
0.2716 	1
0.2723 	1
0.273 	1
0.2737 	1
0.2744 	1
0.2751 	1
0.2758 	1
0.2765 	1
0.2772 	1
0.2779 	1
0.2786 	1
0.2793 	1
0.28 	1
0.2807 	1
0.2814 	1
0.2821 	1
0.2828 	1
0.2835 	1
0.2842 	1
0.2849 	1
0.2856 	1
0.2863 	1
0.287 	1
0.2877 	1
0.2884 	1
0.2891 	1
0.2898 	1
0.2905 	1
0.2912 	1
0.2919 	1
0.2926 	1
0.2933 	1
0.294 	1
0.2947 	1
0.2954 	1
0.2961 	1
0.2968 	1
0.2975 	1
0.2982 	1
0.2989 	1
0.2996 	1
0.3003 	1
0.301 	1
0.3017 	1
0.3024 	1
0.3031 	1
0.3038 	1
0.3045 	1
0.3052 	1
0.3059 	1
0.3066 	1
0.3073 	1
0.308 	1
0.3087 	1
0.3094 	1
0.3101 	1
0.3108 	1
0.3115 	1
0.3122 	1
0.3129 	1
0.3136 	1
0.3143 	1
0.315 	1
0.3157 	1
0.3164 	1
0.3171 	1
0.3178 	1
0.3185 	1
0.3192 	1
0.3199 	1
0.3206 	1
0.3213 	1
0.322 	1
0.3227 	1
0.3234 	1
0.3241 	1
0.3248 	1
0.3255 	1
0.3262 	1
0.3269 	1
0.3276 	1
0.3283 	1
0.329 	1
0.3297 	1
0.3304 	1
0.3311 	1
0.3318 	1
0.3325 	1
0.3332 	1
0.3339 	1
0.3346 	1
0.3353 	1
0.336 	1
0.3367 	1
0.3374 	1
0.3381 	1
0.3388 	1
0.3395 	1
0.3402 	1
0.3409 	1
0.3416 	1
0.3423 	1
0.343 	1
0.3437 	1
0.3444 	1
0.3451 	1
0.3458 	1
0.3465 	1
0.3472 	1
0.3479 	1
0.3486 	1
0.3493 	1
0.35 	1
0.3507 	1
0.3514 	1
0.3521 	1
0.3528 	1
0.3535 	1
0.3542 	1
0.3549 	1
0.3556 	1
0.3563 	1
0.357 	1
0.3577 	1
0.3584 	1
0.3591 	1
0.3598 	1
0.3605 	1
0.3612 	1
0.3619 	1
0.3626 	1
0.3633 	1
0.364 	1
0.3647 	1
0.3654 	1
0.3661 	1
0.3668 	1
0.3675 	1
0.3682 	1
0.3689 	1
0.3696 	1
0.3703 	1
0.371 	1
0.3717 	1
0.3724 	1
0.3731 	1
0.3738 	1
0.3745 	1
0.3752 	1
0.3759 	1
0.3766 	1
0.3773 	1
0.378 	1
0.3787 	1
0.3794 	1
0.3801 	1
0.3808 	1
0.3815 	1
0.3822 	1
0.3829 	0.999999
0.3836 	0.999999
0.3843 	0.999998
0.385 	0.999998
0.3857 	0.999997
0.3864 	0.999997
0.3871 	0.999996
0.3878 	0.999993
0.3885 	0.999985
0.3892 	0.999978
0.3899 	0.99997
0.3906 	0.999963
0.3913 	0.999956
0.392 	0.999949
0.3927 	0.999909
0.3934 	0.999765
0.3941 	0.99962
0.3948 	0.999476
0.3955 	0.999349
0.3962 	0.999229
0.3969 	0.999109
0.3976 	0.998372
0.3983 	0.991801
0.399 	0.985231
0.3997 	0.978661
0.4004 	0.973217
0.4011 	0.968617
0.4018 	0.964018
0.4025 	0.955738
0.4032 	0.883028
0.4039 	0.805476
0.4046 	0.727924
0.4053 	0.650432
0.406 	0.573019
0.4067 	0.495606
0.4074 	0.418194
0.4081 	0.363293
0.4088 	0.312204
0.4095 	0.261114
0.4102 	0.209027
0.4109 	0.154443
0.4116 	0.0998597
0.4123 	0.0452762
0.413 	0.0265259
0.4137 	0.02341
0.4144 	0.020294
0.4151 	0.0169333
0.4158 	0.0121038
0.4165 	0.00727428
0.4172 	0.00244477
0.4179 	0.000217943
0.4186 	0.000211104
0.4193 	0.000204265
0.42 	0.000197426
0.4207 	0.000142855
0.4214 	8.82847e-05
0.4221 	3.37138e-05
0.4228 	1.42495e-07
0.4235 	1.66727e-07
0.4242 	1.90958e-07
0.4249 	2.1519e-07
0.4256 	1.66891e-07
0.4263 	1.06503e-07
0.427 	4.61157e-08
0.4277 	2.12877e-11
0.4284 	2.50771e-11
0.4291 	2.88665e-11
0.4298 	3.26559e-11
0.4305 	3.05398e-11
0.4312 	2.60615e-11
0.4319 	2.15832e-11
0.4326 	1.78449e-11
0.4333 	2.01396e-11
0.434 	2.24343e-11
0.4347 	2.47291e-11
0.4354 	2.68125e-11
0.4361 	2.87374e-11
0.4368 	3.06624e-11
0.4375 	3.26017e-11
0.4382 	3.54382e-11
0.4389 	3.82965e-11
0.4396 	4.11549e-11
0.4403 	4.39412e-11
0.441 	4.66315e-11
0.4417 	4.93217e-11
0.4424 	5.2012e-11
0.4431 	5.38708e-11
0.4438 	5.55833e-11
0.4445 	5.72959e-11
0.4452 	5.90146e-11
0.4459 	6.07487e-11
0.4466 	6.24828e-11
0.4473 	6.42168e-11
0.448 	6.56913e-11
0.4487 	6.70581e-11
0.4494 	6.8425e-11
0.4501 	6.9804e-11
0.4508 	7.12559e-11
0.4515 	7.27078e-11
0.4522 	7.41597e-11
0.4529 	7.57787e-11
0.4536 	7.75233e-11
0.4543 	7.92679e-11
0.455 	8.10126e-11
0.4557 	8.28919e-11
0.4564 	8.47712e-11
0.4571 	8.66505e-11
0.4578 	8.84572e-11
0.4585 	9.01672e-11
0.4592 	9.18772e-11
0.4599 	9.35872e-11
0.4606 	9.54496e-11
0.4613 	9.73373e-11
0.462 	9.92249e-11
0.4627 	1.00854e-10
0.4634 	1.01844e-10
0.4641 	1.02835e-10
0.4648 	1.03825e-10
0.4655 	1.04919e-10
0.4662 	1.06053e-10
0.4669 	1.07187e-10
0.4676 	1.08226e-10
0.4683 	1.0871e-10
0.469 	1.09193e-10
0.4697 	1.09676e-10
0.4704 	1.10258e-10
0.4711 	1.10912e-10
0.4718 	1.11566e-10
0.4725 	1.12216e-10
0.4732 	1.12417e-10
0.4739 	1.12609e-10
0.4746 	1.12801e-10
0.4753 	1.13105e-10
0.476 	1.13557e-10
0.4767 	1.14009e-10
0.4774 	1.14462e-10
0.4781 	1.14471e-10
0.4788 	1.14399e-10
0.4795 	1.14327e-10
0.4802 	1.14321e-10
0.4809 	1.14482e-10
0.4816 	1.14643e-10
0.4823 	1.14804e-10
0.483 	1.14704e-10
0.4837 	1.14492e-10
0.4844 	1.14281e-10
0.4851 	1.14102e-10
0.4858 	1.14109e-10
0.4865 	1.14116e-10
0.4872 	1.14123e-10
0.4879 	1.13696e-10
0.4886 	1.12935e-10
0.4893 	1.12175e-10
0.49 	1.11414e-10
0.4907 	1.10903e-10
0.4914 	1.10391e-10
0.4921 	1.0988e-10
0.4928 	1.08749e-10
0.4935 	1.06779e-10
0.4942 	1.04808e-10
0.4949 	1.02838e-10
0.4956 	1.01e-10
0.4963 	9.91835e-11
0.497 	9.73674e-11
0.4977 	9.50908e-11
0.4984 	9.16684e-11
0.4991 	8.8246e-11
0.4998 	8.48236e-11
0.5005 	8.13032e-11
0.5012 	7.77436e-11
0.5019 	7.41839e-11
0.5026 	7.05552e-11
0.5033 	6.66103e-11
0.504 	6.26653e-11
0.5047 	5.87204e-11
0.5054 	5.45065e-11
0.5061 	5.00909e-11
0.5068 	4.56753e-11
0.5075 	4.13116e-11
0.5082 	3.82774e-11
0.5089 	3.53147e-11
0.5096 	3.2352e-11
0.5103 	2.9144e-11
0.511 	2.56089e-11
0.5117 	2.20739e-11
0.5124 	1.85388e-11
0.5131 	1.6758e-11
0.5138 	1.5286e-11
0.5145 	1.38141e-11
0.5152 	1.22255e-11
0.5159 	1.03451e-11
0.5166 	8.4648e-12
0.5173 	6.58445e-12
0.518 	5.66846e-12
0.5187 	5.14704e-12
0.5194 	4.62562e-12
0.5201 	4.07678e-12
0.5208 	3.36342e-12
0.5215 	2.65007e-12
0.5222 	1.93672e-12
0.5229 	1.54514e-12
0.5236 	1.39914e-12
0.5243 	1.25314e-12
0.525 	1.10714e-12
0.5257 	8.96802e-13
0.5264 	6.86459e-13
0.5271 	4.76116e-13
0.5278 	3.40556e-13
0.5285 	3.07261e-13
0.5292 	2.73966e-13
0.5299 	2.40671e-13
0.5306 	1.93527e-13
0.5313 	1.44075e-13
0.532 	9.46224e-14
0.5327 	5.72031e-14
0.5334 	5.14583e-14
0.5341 	4.57135e-14
0.5348 	3.99687e-14
0.5355 	3.20631e-14
0.5362 	2.32932e-14
0.5369 	1.45233e-14
0.5376 	6.77774e-15
0.5383 	6.0951e-15
0.539 	5.41247e-15
0.5397 	4.72983e-15
0.5404 	3.81737e-15
0.5411 	2.73255e-15
0.5418 	1.64772e-15
0.5425 	6.19031e-16
0.5432 	4.85789e-16
0.5439 	4.32225e-16
0.5446 	3.7866e-16
0.5453 	3.0989e-16
0.546 	2.20845e-16
0.5467 	1.318e-16
0.5474 	4.2755e-17
0.5481 	2.51508e-17
0.5488 	2.24217e-17
0.5495 	1.96926e-17
0.5502 	1.64043e-17
0.5509 	1.17181e-17
0.5516 	7.03186e-18
0.5523 	2.34564e-18
0.553 	7.84264e-19
0.5537 	6.99858e-19
0.5544 	6.15453e-19
0.5551 	5.22149e-19
0.5558 	3.75456e-19
0.5565 	2.28763e-19
0.5572 	8.20693e-20
0.5579 	1.26527e-20
0.5586 	1.12998e-20
0.5593 	9.94693e-21
0.56 	8.59406e-21
0.5607 	6.24114e-21
0.5614 	3.88822e-21
0.5621 	1.5353e-21
0.5628 	8.56823e-23
0.5635 	7.66877e-23
0.5642 	6.76931e-23
0.5649 	5.86985e-23
0.5656 	4.38653e-23
0.5663 	2.8059e-23
0.567 	1.22528e-23
0.5677 	2.29493e-25
0.5684 	2.16573e-25
0.5691 	2.03653e-25
0.5698 	1.90733e-25
0.5705 	1.52375e-25
0.5712 	1.03841e-25
0.5719 	5.53074e-26
0.5726 	1.20854e-26
0.5733 	1.49511e-26
0.574 	1.85622e-26
0.5747 	2.21733e-26
0.5754 	2.09162e-26
0.5761 	1.60078e-26
0.5768 	1.10995e-26
0.5775 	6.65707e-27
0.5782 	8.34278e-27
0.5789 	1.08081e-26
0.5796 	1.32734e-26
0.5803 	1.34148e-26
0.581 	1.04577e-26
0.5817 	7.50066e-27
0.5824 	4.59212e-27
0.5831 	5.14734e-27
0.5838 	6.59135e-27
0.5845 	8.03536e-27
0.5852 	8.5312e-27
0.5859 	6.65662e-27
0.5866 	4.78203e-27
0.5873 	2.90745e-27
0.588 	2.58952e-27
0.5887 	3.15688e-27
0.5894 	3.72425e-27
0.5901 	4.07765e-27
0.5908 	3.14725e-27
0.5915 	2.21685e-27
0.5922 	1.28645e-27
0.5929 	8.31563e-28
0.5936 	9.4043e-28
0.5943 	1.0493e-27
0.595 	1.15816e-27
0.5957 	8.77807e-28
0.5964 	5.97451e-28
0.5971 	3.17094e-28
0.5978 	1.20265e-28
0.5985 	1.25604e-28
0.5992 	1.30942e-28
0.5999 	1.36281e-28
0.6006 	1.06619e-28
0.6013 	7.1123e-29
0.602 	3.56272e-29
0.6027 	5.49679e-30
0.6034 	5.30225e-30
0.6041 	5.1077e-30
0.6048 	4.91316e-30
0.6055 	3.93735e-30
0.6062 	2.64904e-30
0.6069 	1.36073e-30
0.6076 	1.6837e-31
0.6083 	1.0653e-31
0.609 	9.48817e-32
0.6097 	8.32336e-32
0.6104 	6.692e-32
0.6111 	4.71074e-32
0.6118 	2.72947e-32
0.6125 	8.91496e-33
0.6132 	5.72872e-33
0.6139 	4.83345e-33
0.6146 	3.93818e-33
0.6153 	3.07174e-33
0.616 	2.24375e-33
0.6167 	1.41575e-33
0.6174 	6.06796e-34
0.6181 	3.8984e-34
0.6188 	3.17906e-34
0.6195 	2.45971e-34
0.6202 	1.80123e-34
0.6209 	1.29493e-34
0.6216 	7.88629e-35
0.6223 	2.82326e-35
0.623 	1.15169e-35
0.6237 	9.25344e-36
0.6244 	6.98995e-36
0.6251 	4.85088e-36
0.6258 	3.45825e-36
0.6265 	2.06562e-36
0.6272 	6.72993e-37
0.6279 	7.16981e-38
0.6286 	5.76149e-38
0.6293 	4.35318e-38
0.63 	2.94486e-38
0.6307 	2.11628e-38
0.6314 	1.28769e-38
0.6321 	4.59113e-39
0.6328 	5.49523e-41
0.6335 	4.50482e-41
0.6342 	3.5144e-41
0.6349 	2.52398e-41
0.6356 	1.80107e-41
0.6363 	1.12274e-41
0.637 	4.44414e-42
0.6377 	3.81257e-45
0.6384 	3.37869e-45
0.6391 	2.94481e-45
0.6398 	2.51093e-45
0.6405 	1.89382e-45
0.6412 	1.20343e-45
0.6419 	5.13026e-46
0.6426 	1.18544e-47
0.6433 	6.21345e-49
0.644 	6.47381e-49
0.6447 	6.73416e-49
0.6454 	5.95656e-49
0.6461 	4.40048e-49
0.6468 	2.8444e-49
0.6475 	1.47409e-49
0.6482 	1.58685e-49
0.6489 	1.9215e-49
0.6496 	2.25615e-49
0.6503 	2.24981e-49
0.651 	1.7888e-49
0.6517 	1.3278e-49
0.6524 	8.83299e-50
0.6531 	9.15352e-50
0.6538 	1.10064e-49
0.6545 	1.28593e-49
0.6552 	1.34385e-49
0.6559 	1.08337e-49
0.6566 	8.22889e-50
0.6573 	5.62407e-50
0.658 	4.97247e-50
0.6587 	5.57111e-50
0.6594 	6.16975e-50
0.6601 	6.50387e-50
0.6608 	5.25082e-50
0.6615 	3.99778e-50
0.6622 	2.74474e-50
0.6629 	2.01273e-50
0.6636 	2.01368e-50
0.6643 	2.01463e-50
0.665 	2.01557e-50
0.6657 	1.59823e-50
0.6664 	1.18089e-50
0.6671 	7.63544e-51
0.6678 	4.44444e-51
0.6685 	3.98518e-51
0.6692 	3.52592e-51
0.6699 	3.06666e-51
0.6706 	2.38145e-51
0.6713 	1.65858e-51
0.672 	9.35706e-52
0.6727 	3.40339e-52
0.6734 	2.88134e-52
0.6741 	2.35929e-52
0.6748 	1.83725e-52
0.6755 	1.36189e-52
0.6762 	9.05214e-53
0.6769 	4.48535e-53
0.6776 	7.39001e-54
0.6783 	4.81473e-54
0.679 	4.08421e-54
0.6797 	3.3537e-54
0.6804 	2.54325e-54
0.6811 	1.67284e-54
0.6818 	8.02434e-55
0.6825 	7.18598e-56
0.6832 	1.59759e-56
0.6839 	1.64426e-56
0.6846 	1.69092e-56
0.6853 	1.50225e-56
0.686 	9.99794e-57
0.6867 	4.97338e-57
0.6874 	3.14297e-58
0.6881 	7.9201e-59
0.6888 	7.08822e-59
0.6895 	6.25633e-59
0.6902 	5.208e-59
0.6909 	3.61855e-59
0.6916 	2.0291e-59
0.6923 	4.39654e-60
0.693 	1.43148e-60
0.6937 	1.16549e-60
0.6944 	8.99506e-61
0.6951 	6.45228e-61
0.6958 	4.61209e-61
0.6965 	2.7719e-61
0.6972 	9.31707e-62
0.6979 	1.15014e-62
0.6986 	1.11371e-62
0.6993 	1.07728e-62
0.7 	1.04085e-62
