0 	1
0.0007 	1
0.0014 	1
0.0021 	1
0.0028 	1
0.0035 	1
0.0042 	1
0.0049 	1
0.0056 	1
0.0063 	1
0.007 	1
0.0077 	1
0.0084 	1
0.0091 	1
0.0098 	1
0.0105 	1
0.0112 	1
0.0119 	1
0.0126 	1
0.0133 	1
0.014 	1
0.0147 	1
0.0154 	1
0.0161 	1
0.0168 	1
0.0175 	1
0.0182 	1
0.0189 	1
0.0196 	1
0.0203 	1
0.021 	1
0.0217 	1
0.0224 	1
0.0231 	1
0.0238 	1
0.0245 	1
0.0252 	1
0.0259 	1
0.0266 	1
0.0273 	1
0.028 	1
0.0287 	1
0.0294 	1
0.0301 	1
0.0308 	1
0.0315 	1
0.0322 	1
0.0329 	1
0.0336 	1
0.0343 	1
0.035 	1
0.0357 	1
0.0364 	1
0.0371 	1
0.0378 	1
0.0385 	1
0.0392 	1
0.0399 	1
0.0406 	1
0.0413 	1
0.042 	1
0.0427 	1
0.0434 	1
0.0441 	1
0.0448 	1
0.0455 	1
0.0462 	1
0.0469 	1
0.0476 	1
0.0483 	1
0.049 	1
0.0497 	1
0.0504 	1
0.0511 	1
0.0518 	1
0.0525 	1
0.0532 	1
0.0539 	1
0.0546 	1
0.0553 	1
0.056 	1
0.0567 	1
0.0574 	1
0.0581 	1
0.0588 	1
0.0595 	1
0.0602 	1
0.0609 	1
0.0616 	1
0.0623 	1
0.063 	1
0.0637 	1
0.0644 	1
0.0651 	1
0.0658 	1
0.0665 	1
0.0672 	1
0.0679 	1
0.0686 	1
0.0693 	1
0.07 	1
0.0707 	1
0.0714 	1
0.0721 	1
0.0728 	1
0.0735 	1
0.0742 	1
0.0749 	1
0.0756 	1
0.0763 	1
0.077 	1
0.0777 	1
0.0784 	1
0.0791 	1
0.0798 	1
0.0805 	1
0.0812 	1
0.0819 	1
0.0826 	1
0.0833 	1
0.084 	1
0.0847 	1
0.0854 	1
0.0861 	1
0.0868 	1
0.0875 	1
0.0882 	1
0.0889 	1
0.0896 	1
0.0903 	1
0.091 	1
0.0917 	1
0.0924 	1
0.0931 	1
0.0938 	1
0.0945 	1
0.0952 	1
0.0959 	1
0.0966 	1
0.0973 	1
0.098 	1
0.0987 	1
0.0994 	1
0.1001 	1
0.1008 	1
0.1015 	1
0.1022 	1
0.1029 	1
0.1036 	1
0.1043 	1
0.105 	1
0.1057 	1
0.1064 	1
0.1071 	1
0.1078 	1
0.1085 	1
0.1092 	1
0.1099 	1
0.1106 	1
0.1113 	1
0.112 	1
0.1127 	1
0.1134 	1
0.1141 	1
0.1148 	1
0.1155 	1
0.1162 	1
0.1169 	1
0.1176 	1
0.1183 	1
0.119 	1
0.1197 	1
0.1204 	1
0.1211 	1
0.1218 	1
0.1225 	1
0.1232 	1
0.1239 	1
0.1246 	1
0.1253 	1
0.126 	1
0.1267 	1
0.1274 	1
0.1281 	1
0.1288 	1
0.1295 	1
0.1302 	1
0.1309 	1
0.1316 	1
0.1323 	1
0.133 	1
0.1337 	1
0.1344 	1
0.1351 	1
0.1358 	1
0.1365 	1
0.1372 	1
0.1379 	1
0.1386 	1
0.1393 	1
0.14 	1
0.1407 	1
0.1414 	1
0.1421 	1
0.1428 	1
0.1435 	1
0.1442 	1
0.1449 	1
0.1456 	1
0.1463 	1
0.147 	1
0.1477 	1
0.1484 	1
0.1491 	1
0.1498 	1
0.1505 	1
0.1512 	1
0.1519 	1
0.1526 	1
0.1533 	1
0.154 	1
0.1547 	1
0.1554 	1
0.1561 	1
0.1568 	1
0.1575 	1
0.1582 	1
0.1589 	1
0.1596 	1
0.1603 	1
0.161 	1
0.1617 	1
0.1624 	1
0.1631 	1
0.1638 	1
0.1645 	1
0.1652 	1
0.1659 	1
0.1666 	1
0.1673 	1
0.168 	1
0.1687 	1
0.1694 	1
0.1701 	1
0.1708 	1
0.1715 	1
0.1722 	1
0.1729 	1
0.1736 	1
0.1743 	1
0.175 	1
0.1757 	1
0.1764 	1
0.1771 	1
0.1778 	1
0.1785 	1
0.1792 	1
0.1799 	1
0.1806 	1
0.1813 	1
0.182 	1
0.1827 	1
0.1834 	1
0.1841 	1
0.1848 	1
0.1855 	1
0.1862 	1
0.1869 	1
0.1876 	1
0.1883 	1
0.189 	1
0.1897 	1
0.1904 	1
0.1911 	1
0.1918 	1
0.1925 	1
0.1932 	1
0.1939 	1
0.1946 	1
0.1953 	1
0.196 	1
0.1967 	1
0.1974 	1
0.1981 	1
0.1988 	1
0.1995 	1
0.2002 	1
0.2009 	1
0.2016 	1
0.2023 	1
0.203 	1
0.2037 	1
0.2044 	1
0.2051 	1
0.2058 	1
0.2065 	1
0.2072 	1
0.2079 	1
0.2086 	1
0.2093 	1
0.21 	1
0.2107 	1
0.2114 	1
0.2121 	1
0.2128 	1
0.2135 	1
0.2142 	1
0.2149 	1
0.2156 	1
0.2163 	1
0.217 	1
0.2177 	1
0.2184 	1
0.2191 	1
0.2198 	1
0.2205 	1
0.2212 	1
0.2219 	1
0.2226 	1
0.2233 	1
0.224 	1
0.2247 	1
0.2254 	1
0.2261 	1
0.2268 	1
0.2275 	1
0.2282 	1
0.2289 	1
0.2296 	1
0.2303 	1
0.231 	1
0.2317 	1
0.2324 	1
0.2331 	1
0.2338 	1
0.2345 	1
0.2352 	1
0.2359 	1
0.2366 	1
0.2373 	1
0.238 	1
0.2387 	1
0.2394 	1
0.2401 	1
0.2408 	1
0.2415 	1
0.2422 	1
0.2429 	1
0.2436 	1
0.2443 	1
0.245 	1
0.2457 	1
0.2464 	1
0.2471 	1
0.2478 	1
0.2485 	1
0.2492 	1
0.2499 	1
0.2506 	1
0.2513 	1
0.252 	1
0.2527 	1
0.2534 	1
0.2541 	1
0.2548 	1
0.2555 	1
0.2562 	1
0.2569 	1
0.2576 	1
0.2583 	1
0.259 	1
0.2597 	1
0.2604 	1
0.2611 	1
0.2618 	1
0.2625 	1
0.2632 	1
0.2639 	1
0.2646 	1
0.2653 	1
0.266 	1
0.2667 	1
0.2674 	1
0.2681 	1
0.2688 	1
0.2695 	1
0.2702 	1
0.2709 	1
0.2716 	1
0.2723 	1
0.273 	1
0.2737 	1
0.2744 	1
0.2751 	1
0.2758 	1
0.2765 	1
0.2772 	1
0.2779 	1
0.2786 	1
0.2793 	1
0.28 	1
0.2807 	1
0.2814 	1
0.2821 	1
0.2828 	1
0.2835 	1
0.2842 	1
0.2849 	1
0.2856 	1
0.2863 	1
0.287 	1
0.2877 	1
0.2884 	1
0.2891 	1
0.2898 	1
0.2905 	1
0.2912 	1
0.2919 	1
0.2926 	1
0.2933 	1
0.294 	1
0.2947 	1
0.2954 	1
0.2961 	1
0.2968 	1
0.2975 	1
0.2982 	1
0.2989 	1
0.2996 	1
0.3003 	1
0.301 	1
0.3017 	1
0.3024 	1
0.3031 	1
0.3038 	1
0.3045 	1
0.3052 	1
0.3059 	1
0.3066 	1
0.3073 	1
0.308 	1
0.3087 	1
0.3094 	1
0.3101 	1
0.3108 	1
0.3115 	1
0.3122 	1
0.3129 	1
0.3136 	1
0.3143 	1
0.315 	1
0.3157 	1
0.3164 	1
0.3171 	1
0.3178 	1
0.3185 	1
0.3192 	1
0.3199 	1
0.3206 	1
0.3213 	1
0.322 	1
0.3227 	1
0.3234 	1
0.3241 	1
0.3248 	1
0.3255 	1
0.3262 	1
0.3269 	1
0.3276 	1
0.3283 	1
0.329 	1
0.3297 	1
0.3304 	1
0.3311 	1
0.3318 	1
0.3325 	1
0.3332 	1
0.3339 	1
0.3346 	1
0.3353 	1
0.336 	1
0.3367 	1
0.3374 	1
0.3381 	1
0.3388 	1
0.3395 	1
0.3402 	1
0.3409 	1
0.3416 	1
0.3423 	1
0.343 	1
0.3437 	1
0.3444 	1
0.3451 	1
0.3458 	1
0.3465 	1
0.3472 	1
0.3479 	1
0.3486 	1
0.3493 	1
0.35 	1
0.3507 	1
0.3514 	1
0.3521 	1
0.3528 	1
0.3535 	1
0.3542 	1
0.3549 	1
0.3556 	1
0.3563 	0.999996
0.357 	0.999991
0.3577 	0.999987
0.3584 	0.999982
0.3591 	0.999978
0.3598 	0.99997
0.3605 	0.999961
0.3612 	0.999561
0.3619 	0.999007
0.3626 	0.998452
0.3633 	0.997898
0.364 	0.997344
0.3647 	0.996459
0.3654 	0.995327
0.3661 	0.988403
0.3668 	0.977022
0.3675 	0.965642
0.3682 	0.954261
0.3689 	0.94288
0.3696 	0.926705
0.3703 	0.904441
0.371 	0.868628
0.3717 	0.813587
0.3724 	0.758547
0.3731 	0.703507
0.3738 	0.648466
0.3745 	0.583143
0.3752 	0.494709
0.3759 	0.414064
0.3766 	0.356011
0.3773 	0.297957
0.378 	0.239904
0.3787 	0.18185
0.3794 	0.129246
0.3801 	0.102306
0.3808 	0.0766035
0.3815 	0.0622333
0.3822 	0.0478632
0.3829 	0.0334931
0.3836 	0.0191229
0.3843 	0.00530219
0.385 	0.00421178
0.3857 	0.00310816
0.3864 	0.00249588
0.3871 	0.00190623
0.3878 	0.00131658
0.3885 	0.000726932
0.3892 	0.000137284
0.3899 	6.75237e-05
0.3906 	5.05534e-05
0.3913 	4.00722e-05
0.392 	3.11781e-05
0.3927 	2.2284e-05
0.3934 	1.33899e-05
0.3941 	4.49574e-06
0.3948 	2.08971e-06
0.3955 	1.58143e-06
0.3962 	1.23332e-06
0.3969 	9.70627e-07
0.3976 	7.07935e-07
0.3983 	4.45242e-07
0.399 	1.8255e-07
0.3997 	7.64863e-08
0.4004 	5.86549e-08
0.4011 	4.50762e-08
0.4018 	3.57495e-08
0.4025 	2.64228e-08
0.4032 	1.70962e-08
0.4039 	7.76953e-09
0.4046 	2.83795e-09
0.4053 	2.20654e-09
0.406 	1.6789e-09
0.4067 	1.34552e-09
0.4074 	1.01215e-09
0.4081 	6.78777e-10
0.4088 	3.45403e-10
0.4095 	1.26802e-10
0.4102 	1.02698e-10
0.4109 	8.07104e-11
0.4116 	6.73151e-11
0.4123 	5.39198e-11
0.413 	4.05245e-11
0.4137 	2.71292e-11
0.4144 	1.63967e-11
0.4151 	1.42536e-11
0.4158 	1.21418e-11
0.4165 	1.0741e-11
0.4172 	9.34029e-12
0.4179 	7.93953e-12
0.4186 	6.53877e-12
0.4193 	5.2215e-12
0.42 	4.63906e-12
0.4207 	4.05049e-12
0.4214 	3.61777e-12
0.4221 	3.20324e-12
0.4228 	2.78871e-12
0.4235 	2.37418e-12
0.4242 	1.95965e-12
0.4249 	1.74297e-12
0.4256 	1.52876e-12
0.4263 	1.359e-12
0.427 	1.20472e-12
0.4277 	1.05045e-12
0.4284 	8.96177e-13
0.4291 	7.41903e-13
0.4298 	6.52034e-13
0.4305 	5.73105e-13
0.4312 	5.05818e-13
0.4319 	4.47053e-13
0.4326 	3.88288e-13
0.4333 	3.29524e-13
0.434 	2.70759e-13
0.4347 	2.32357e-13
0.4354 	2.02049e-13
0.4361 	1.74956e-13
0.4368 	1.52609e-13
0.4375 	1.30261e-13
0.4382 	1.07913e-13
0.4389 	8.55655e-14
0.4396 	7.00648e-14
0.4403 	5.96971e-14
0.441 	5.00559e-14
0.4417 	4.28161e-14
0.4424 	3.55763e-14
0.4431 	2.83366e-14
0.4438 	2.10968e-14
0.4445 	1.5874e-14
0.4452 	1.33258e-14
0.4459 	1.08249e-14
0.4466 	9.12107e-15
0.4473 	7.41725e-15
0.448 	5.71343e-15
0.4487 	4.00962e-15
0.4494 	2.67603e-15
0.4501 	2.23981e-15
0.4508 	1.78555e-15
0.4515 	1.49642e-15
0.4522 	1.20862e-15
0.4529 	9.20822e-16
0.4536 	6.33024e-16
0.4543 	3.80583e-16
0.455 	3.19757e-16
0.4557 	2.55915e-16
0.4564 	2.11879e-16
0.4571 	1.71562e-16
0.4578 	1.31245e-16
0.4585 	9.09277e-17
0.4592 	5.12545e-17
0.4599 	4.30812e-17
0.4606 	3.45478e-17
0.4613 	2.81773e-17
0.462 	2.27962e-17
0.4627 	1.74152e-17
0.4634 	1.20341e-17
0.4641 	6.65307e-18
0.4648 	5.15594e-18
0.4655 	4.12892e-18
0.4662 	3.30262e-18
0.4669 	2.65894e-18
0.4676 	2.01525e-18
0.4683 	1.37157e-18
0.469 	7.27881e-19
0.4697 	4.95157e-19
0.4704 	3.97636e-19
0.4711 	3.12886e-19
0.4718 	2.5158e-19
0.4725 	1.90274e-19
0.4732 	1.28968e-19
0.4739 	6.76623e-20
0.4746 	3.94011e-20
0.4753 	3.19107e-20
0.476 	2.48949e-20
0.4767 	2.01256e-20
0.4774 	1.53563e-20
0.4781 	1.05869e-20
0.4788 	5.81758e-21
0.4795 	3.05577e-21
0.4802 	2.49883e-21
0.4809 	1.9412e-21
0.4816 	1.58156e-21
0.4823 	1.22191e-21
0.483 	8.62261e-22
0.4837 	5.02613e-22
0.4844 	2.49868e-22
0.4851 	2.05102e-22
0.4858 	1.58432e-22
0.4865 	1.28514e-22
0.4872 	9.95814e-23
0.4879 	7.06489e-23
0.4886 	4.17165e-23
0.4893 	1.7993e-23
0.49 	1.4776e-23
0.4907 	1.13844e-23
0.4914 	9.04061e-24
0.4921 	6.96641e-24
0.4928 	4.8922e-24
0.4935 	2.818e-24
0.4942 	8.70162e-25
0.4949 	7.15893e-25
0.4956 	5.52782e-25
0.4963 	4.29973e-25
0.497 	3.30014e-25
0.4977 	2.30055e-25
0.4984 	1.30096e-25
0.4991 	3.01373e-26
0.4998 	1.92783e-26
0.5005 	1.49971e-26
0.5012 	1.14745e-26
0.5019 	8.81425e-27
0.5026 	6.15395e-27
0.5033 	3.49366e-27
0.504 	8.33361e-28
0.5047 	2.41688e-28
0.5054 	1.90615e-28
0.5061 	1.44445e-28
0.5068 	1.11608e-28
0.5075 	7.87701e-29
0.5082 	4.59327e-29
0.5089 	1.30952e-29
0.5096 	1.58371e-30
0.5103 	1.2941e-30
0.511 	9.94629e-31
0.5117 	7.84403e-31
0.5124 	5.74177e-31
0.5131 	3.63952e-31
0.5138 	1.53726e-31
0.5145 	4.87402e-32
0.5152 	4.12876e-32
0.5159 	3.24255e-32
0.5166 	2.62485e-32
0.5173 	2.00715e-32
0.518 	1.38945e-32
0.5187 	7.71754e-33
0.5194 	3.72523e-33
0.5201 	3.27356e-33
0.5208 	2.67468e-33
0.5215 	2.22306e-33
0.5222 	1.78709e-33
0.5229 	1.35113e-33
0.5236 	9.15165e-34
0.5243 	5.70234e-34
0.525 	5.09897e-34
0.5257 	4.23954e-34
0.5264 	3.54176e-34
0.5271 	2.89618e-34
0.5278 	2.2506e-34
0.5285 	1.60503e-34
0.5292 	1.01473e-34
0.5299 	8.97587e-35
0.5306 	7.40588e-35
0.5313 	6.04274e-35
0.532 	4.85584e-35
0.5327 	3.66894e-35
0.5334 	2.48205e-35
0.5341 	1.29515e-35
0.5348 	1.11076e-35
0.5355 	9.18822e-36
0.5362 	7.37675e-36
0.5369 	5.88935e-36
0.5376 	4.40194e-36
0.5383 	2.91454e-36
0.539 	1.42713e-36
0.5397 	1.05503e-36
0.5404 	8.87925e-37
0.5411 	7.1861e-37
0.5418 	5.86613e-37
0.5425 	4.54616e-37
0.5432 	3.22619e-37
0.5439 	1.90622e-37
0.5446 	1.37046e-37
0.5453 	1.17631e-37
0.546 	9.79053e-38
0.5467 	8.3274e-38
0.5474 	6.86427e-38
0.5481 	5.40114e-38
0.5488 	3.938e-38
0.5495 	3.0428e-38
0.5502 	2.60678e-38
0.5509 	2.16963e-38
0.5516 	1.86601e-38
0.5523 	1.56239e-38
0.553 	1.25877e-38
0.5537 	9.55148e-39
0.5544 	7.30278e-39
0.5551 	6.16819e-39
0.5558 	5.02222e-39
0.5565 	4.21203e-39
0.5572 	3.45181e-39
0.5579 	2.69158e-39
0.5586 	1.93136e-39
0.5593 	1.32331e-39
0.56 	1.11621e-39
0.5607 	8.97721e-40
0.5614 	7.33571e-40
0.5621 	5.90196e-40
0.5628 	4.46821e-40
0.5635 	3.03445e-40
0.5642 	1.75987e-40
0.5649 	1.49342e-40
0.5656 	1.20745e-40
0.5663 	9.75454e-41
0.567 	7.85507e-41
0.5677 	5.95559e-41
0.5684 	4.05611e-41
0.5691 	2.15663e-41
0.5698 	1.83931e-41
0.5705 	1.50834e-41
0.5712 	1.2206e-41
0.5719 	9.99642e-42
0.5726 	7.78685e-42
0.5733 	5.57728e-42
0.574 	3.36771e-42
0.5747 	2.68245e-42
0.5754 	2.23565e-42
0.5761 	1.82437e-42
0.5768 	1.5276e-42
0.5775 	1.23084e-42
0.5782 	9.34078e-43
0.5789 	6.37316e-43
0.5796 	4.95461e-43
0.5803 	4.13435e-43
0.581 	3.34639e-43
0.5817 	2.81692e-43
0.5824 	2.28745e-43
0.5831 	1.75798e-43
0.5838 	1.22851e-43
0.5845 	9.14777e-44
0.5852 	7.5652e-44
0.5859 	5.96229e-44
0.5866 	4.95234e-44
0.5873 	3.94821e-44
0.588 	2.94407e-44
0.5887 	1.93994e-44
0.5894 	1.28076e-44
0.5901 	1.05822e-44
0.5908 	8.25714e-45
0.5915 	6.66251e-45
0.5922 	5.20278e-45
0.5929 	3.74305e-45
0.5936 	2.28332e-45
0.5943 	1.2025e-45
0.595 	1.00248e-45
0.5957 	7.81816e-46
0.5964 	6.1715e-46
0.5971 	4.76704e-46
0.5978 	3.36257e-46
0.5985 	1.95811e-46
0.5992 	7.60304e-47
0.5999 	6.39145e-47
0.6006 	5.02121e-47
0.6013 	3.8981e-47
0.602 	2.99688e-47
0.6027 	2.09565e-47
0.6034 	1.19443e-47
0.6041 	3.1127e-48
0.6048 	2.65018e-48
0.6055 	2.111e-48
0.6062 	1.61941e-48
0.6069 	1.24213e-48
0.6076 	8.64842e-49
0.6083 	4.87559e-49
0.609 	1.10276e-49
0.6097 	5.79652e-50
0.6104 	4.74517e-50
0.6111 	3.63379e-50
0.6118 	2.79169e-50
0.6125 	1.9496e-50
0.6132 	1.1075e-50
0.6139 	2.65402e-51
0.6146 	4.41382e-52
0.6153 	3.80179e-52
0.616 	2.94756e-52
0.6167 	2.27913e-52
0.6174 	1.61069e-52
0.6181 	9.42254e-53
0.6188 	2.73817e-53
0.6195 	6.72488e-55
0.6202 	6.26905e-55
0.6209 	4.96743e-55
0.6216 	3.86864e-55
0.6223 	2.77612e-55
0.623 	1.6836e-55
0.6237 	5.91074e-56
0.6244 	1.19052e-58
0.6251 	1.2239e-58
0.6258 	9.91587e-59
0.6265 	7.76819e-59
0.6272 	5.65776e-59
0.6279 	3.54733e-59
0.6286 	1.4369e-59
0.6293 	5.67927e-63
0.63 	6.1143e-63
0.6307 	4.99051e-63
0.6314 	3.93135e-63
0.6321 	2.90263e-63
0.6328 	1.87391e-63
0.6335 	8.45192e-64
0.6342 	2.28391e-67
0.6349 	2.49432e-67
0.6356 	2.12456e-67
0.6363 	1.67373e-67
0.637 	1.23648e-67
0.6377 	7.99225e-68
0.6384 	3.61973e-68
0.6391 	-5.91568e-69
0.6398 	-6.8729e-69
0.6405 	-7.74062e-69
0.6412 	-8.59e-69
0.6419 	-9.46668e-69
0.6426 	-1.03434e-68
0.6433 	-1.122e-68
0.644 	-1.20967e-68
0.6447 	-1.24173e-68
0.6454 	-1.2265e-68
0.6461 	-1.18778e-68
0.6468 	-1.17107e-68
0.6475 	-1.15435e-68
0.6482 	-1.13764e-68
0.6489 	-1.12093e-68
0.6496 	-1.1301e-68
0.6503 	-1.11462e-68
0.651 	-1.05761e-68
0.6517 	-1.02269e-68
0.6524 	-9.87771e-69
0.6531 	-9.52854e-69
0.6538 	-9.17936e-69
0.6545 	-9.09943e-69
0.6552 	-9.00629e-69
0.6559 	-8.45706e-69
0.6566 	-8.08018e-69
0.6573 	-7.71107e-69
0.658 	-7.34195e-69
0.6587 	-6.97284e-69
0.6594 	-6.78776e-69
0.6601 	-6.73909e-69
0.6608 	-6.27625e-69
0.6615 	-5.91307e-69
0.6622 	-5.57286e-69
0.6629 	-5.23265e-69
0.6636 	-4.89244e-69
0.6643 	-4.65732e-69
0.665 	-4.63471e-69
0.6657 	-4.2765e-69
0.6664 	-3.97062e-69
0.6671 	-3.69068e-69
0.6678 	-3.41073e-69
0.6685 	-3.13078e-69
0.6692 	-2.89624e-69
0.6699 	-2.85646e-69
0.6706 	-2.63578e-69
0.6713 	-2.40965e-69
0.672 	-2.20589e-69
0.6727 	-2.00213e-69
0.6734 	-1.79837e-69
0.6741 	-1.60242e-69
0.6748 	-1.56467e-69
0.6755 	-1.44262e-69
0.6762 	-1.297e-69
0.6769 	-1.16788e-69
0.6776 	-1.03875e-69
0.6783 	-9.09626e-70
0.679 	-7.805e-70
0.6797 	-7.444e-70
0.6804 	-6.85269e-70
0.6811 	-6.04863e-70
0.6818 	-5.35122e-70
0.6825 	-4.65381e-70
0.6832 	-3.95639e-70
0.6839 	-3.25898e-70
0.6846 	-2.98563e-70
0.6853 	-2.74302e-70
0.686 	-2.37169e-70
0.6867 	-2.0598e-70
0.6874 	-1.74791e-70
0.6881 	-1.43602e-70
0.6888 	-1.12413e-70
0.6895 	-9.69993e-71
0.6902 	-8.89789e-71
0.6909 	-7.52975e-71
0.6916 	-6.40719e-71
0.6923 	-5.29728e-71
0.693 	-4.18737e-71
0.6937 	-3.07746e-71
0.6944 	-2.41745e-71
0.6951 	-2.21971e-71
0.6958 	-1.84422e-71
0.6965 	-1.57174e-71
0.6972 	-1.32374e-71
0.6979 	-1.07575e-71
0.6986 	-8.27749e-72
0.6993 	-6.74576e-72
0.7 	-7.09658e-72
