0 	1
0.0007 	1
0.0014 	1
0.0021 	1
0.0028 	1
0.0035 	1
0.0042 	1
0.0049 	1
0.0056 	1
0.0063 	1
0.007 	1
0.0077 	1
0.0084 	1
0.0091 	1
0.0098 	1
0.0105 	1
0.0112 	1
0.0119 	1
0.0126 	1
0.0133 	1
0.014 	1
0.0147 	1
0.0154 	1
0.0161 	1
0.0168 	1
0.0175 	1
0.0182 	1
0.0189 	1
0.0196 	1
0.0203 	1
0.021 	1
0.0217 	1
0.0224 	1
0.0231 	1
0.0238 	1
0.0245 	1
0.0252 	1
0.0259 	1
0.0266 	1
0.0273 	1
0.028 	1
0.0287 	1
0.0294 	1
0.0301 	1
0.0308 	1
0.0315 	1
0.0322 	1
0.0329 	1
0.0336 	1
0.0343 	1
0.035 	1
0.0357 	1
0.0364 	1
0.0371 	1
0.0378 	1
0.0385 	1
0.0392 	1
0.0399 	1
0.0406 	1
0.0413 	1
0.042 	1
0.0427 	1
0.0434 	1
0.0441 	1
0.0448 	1
0.0455 	1
0.0462 	1
0.0469 	1
0.0476 	1
0.0483 	1
0.049 	1
0.0497 	1
0.0504 	1
0.0511 	1
0.0518 	1
0.0525 	1
0.0532 	1
0.0539 	1
0.0546 	1
0.0553 	1
0.056 	1
0.0567 	1
0.0574 	1
0.0581 	1
0.0588 	1
0.0595 	1
0.0602 	1
0.0609 	1
0.0616 	1
0.0623 	1
0.063 	1
0.0637 	1
0.0644 	1
0.0651 	1
0.0658 	1
0.0665 	1
0.0672 	1
0.0679 	1
0.0686 	1
0.0693 	1
0.07 	1
0.0707 	1
0.0714 	1
0.0721 	1
0.0728 	1
0.0735 	1
0.0742 	1
0.0749 	1
0.0756 	1
0.0763 	1
0.077 	1
0.0777 	1
0.0784 	1
0.0791 	1
0.0798 	1
0.0805 	1
0.0812 	1
0.0819 	1
0.0826 	1
0.0833 	1
0.084 	1
0.0847 	1
0.0854 	1
0.0861 	1
0.0868 	1
0.0875 	1
0.0882 	1
0.0889 	1
0.0896 	1
0.0903 	1
0.091 	1
0.0917 	1
0.0924 	1
0.0931 	1
0.0938 	1
0.0945 	1
0.0952 	1
0.0959 	1
0.0966 	1
0.0973 	1
0.098 	1
0.0987 	1
0.0994 	1
0.1001 	1
0.1008 	1
0.1015 	1
0.1022 	1
0.1029 	1
0.1036 	1
0.1043 	1
0.105 	1
0.1057 	1
0.1064 	1
0.1071 	1
0.1078 	1
0.1085 	1
0.1092 	1
0.1099 	1
0.1106 	1
0.1113 	1
0.112 	1
0.1127 	1
0.1134 	1
0.1141 	1
0.1148 	1
0.1155 	1
0.1162 	1
0.1169 	1
0.1176 	1
0.1183 	1
0.119 	1
0.1197 	1
0.1204 	1
0.1211 	1
0.1218 	1
0.1225 	1
0.1232 	1
0.1239 	1
0.1246 	1
0.1253 	1
0.126 	1
0.1267 	1
0.1274 	1
0.1281 	1
0.1288 	1
0.1295 	1
0.1302 	1
0.1309 	1
0.1316 	1
0.1323 	1
0.133 	1
0.1337 	1
0.1344 	1
0.1351 	1
0.1358 	1
0.1365 	1
0.1372 	1
0.1379 	1
0.1386 	1
0.1393 	1
0.14 	1
0.1407 	1
0.1414 	1
0.1421 	1
0.1428 	1
0.1435 	1
0.1442 	1
0.1449 	1
0.1456 	1
0.1463 	1
0.147 	1
0.1477 	1
0.1484 	1
0.1491 	1
0.1498 	1
0.1505 	1
0.1512 	1
0.1519 	1
0.1526 	1
0.1533 	1
0.154 	1
0.1547 	1
0.1554 	1
0.1561 	1
0.1568 	1
0.1575 	1
0.1582 	1
0.1589 	1
0.1596 	1
0.1603 	1
0.161 	1
0.1617 	1
0.1624 	1
0.1631 	1
0.1638 	1
0.1645 	1
0.1652 	1
0.1659 	1
0.1666 	1
0.1673 	1
0.168 	1
0.1687 	1
0.1694 	1
0.1701 	1
0.1708 	1
0.1715 	1
0.1722 	1
0.1729 	1
0.1736 	1
0.1743 	1
0.175 	1
0.1757 	1
0.1764 	1
0.1771 	1
0.1778 	1
0.1785 	1
0.1792 	1
0.1799 	1
0.1806 	1
0.1813 	1
0.182 	1
0.1827 	1
0.1834 	1
0.1841 	1
0.1848 	1
0.1855 	1
0.1862 	1
0.1869 	1
0.1876 	1
0.1883 	1
0.189 	1
0.1897 	1
0.1904 	1
0.1911 	1
0.1918 	1
0.1925 	1
0.1932 	1
0.1939 	1
0.1946 	1
0.1953 	1
0.196 	1
0.1967 	1
0.1974 	1
0.1981 	1
0.1988 	1
0.1995 	1
0.2002 	1
0.2009 	1
0.2016 	1
0.2023 	1
0.203 	1
0.2037 	1
0.2044 	1
0.2051 	1
0.2058 	1
0.2065 	1
0.2072 	1
0.2079 	1
0.2086 	1
0.2093 	1
0.21 	1
0.2107 	1
0.2114 	1
0.2121 	1
0.2128 	1
0.2135 	1
0.2142 	1
0.2149 	1
0.2156 	1
0.2163 	1
0.217 	1
0.2177 	1
0.2184 	1
0.2191 	1
0.2198 	1
0.2205 	1
0.2212 	1
0.2219 	1
0.2226 	1
0.2233 	1
0.224 	1
0.2247 	1
0.2254 	1
0.2261 	1
0.2268 	1
0.2275 	1
0.2282 	1
0.2289 	1
0.2296 	1
0.2303 	1
0.231 	1
0.2317 	1
0.2324 	1
0.2331 	1
0.2338 	1
0.2345 	1
0.2352 	1
0.2359 	1
0.2366 	1
0.2373 	1
0.238 	1
0.2387 	1
0.2394 	1
0.2401 	1
0.2408 	1
0.2415 	1
0.2422 	1
0.2429 	1
0.2436 	1
0.2443 	1
0.245 	1
0.2457 	1
0.2464 	1
0.2471 	1
0.2478 	1
0.2485 	1
0.2492 	1
0.2499 	1
0.2506 	1
0.2513 	1
0.252 	1
0.2527 	1
0.2534 	1
0.2541 	1
0.2548 	1
0.2555 	1
0.2562 	1
0.2569 	1
0.2576 	1
0.2583 	1
0.259 	1
0.2597 	1
0.2604 	1
0.2611 	1
0.2618 	1
0.2625 	1
0.2632 	1
0.2639 	1
0.2646 	1
0.2653 	1
0.266 	1
0.2667 	1
0.2674 	1
0.2681 	1
0.2688 	1
0.2695 	1
0.2702 	1
0.2709 	1
0.2716 	1
0.2723 	1
0.273 	1
0.2737 	1
0.2744 	1
0.2751 	1
0.2758 	1
0.2765 	1
0.2772 	1
0.2779 	1
0.2786 	1
0.2793 	1
0.28 	1
0.2807 	1
0.2814 	1
0.2821 	1
0.2828 	1
0.2835 	1
0.2842 	1
0.2849 	1
0.2856 	1
0.2863 	1
0.287 	1
0.2877 	1
0.2884 	1
0.2891 	1
0.2898 	1
0.2905 	1
0.2912 	1
0.2919 	1
0.2926 	1
0.2933 	1
0.294 	1
0.2947 	1
0.2954 	1
0.2961 	1
0.2968 	1
0.2975 	1
0.2982 	1
0.2989 	1
0.2996 	1
0.3003 	1
0.301 	1
0.3017 	1
0.3024 	1
0.3031 	1
0.3038 	1
0.3045 	1
0.3052 	1
0.3059 	1
0.3066 	1
0.3073 	1
0.308 	1
0.3087 	1
0.3094 	1
0.3101 	1
0.3108 	1
0.3115 	1
0.3122 	1
0.3129 	1
0.3136 	1
0.3143 	1
0.315 	1
0.3157 	1
0.3164 	1
0.3171 	1
0.3178 	1
0.3185 	1
0.3192 	1
0.3199 	1
0.3206 	1
0.3213 	1
0.322 	1
0.3227 	1
0.3234 	1
0.3241 	1
0.3248 	1
0.3255 	1
0.3262 	1
0.3269 	1
0.3276 	1
0.3283 	1
0.329 	1
0.3297 	1
0.3304 	1
0.3311 	1
0.3318 	1
0.3325 	1
0.3332 	1
0.3339 	1
0.3346 	1
0.3353 	1
0.336 	1
0.3367 	1
0.3374 	1
0.3381 	1
0.3388 	1
0.3395 	1
0.3402 	1
0.3409 	1
0.3416 	1
0.3423 	1
0.343 	1
0.3437 	1
0.3444 	1
0.3451 	1
0.3458 	1
0.3465 	1
0.3472 	1
0.3479 	1
0.3486 	1
0.3493 	1
0.35 	1
0.3507 	1
0.3514 	1
0.3521 	1
0.3528 	1
0.3535 	1
0.3542 	1
0.3549 	1
0.3556 	1
0.3563 	1
0.357 	1
0.3577 	1
0.3584 	1
0.3591 	1
0.3598 	1
0.3605 	1
0.3612 	1
0.3619 	1
0.3626 	1
0.3633 	1
0.364 	1
0.3647 	1
0.3654 	1
0.3661 	1
0.3668 	1
0.3675 	1
0.3682 	1
0.3689 	1
0.3696 	1
0.3703 	1
0.371 	0.999997
0.3717 	0.999994
0.3724 	0.999991
0.3731 	0.999988
0.3738 	0.999985
0.3745 	0.999982
0.3752 	0.999975
0.3759 	0.999351
0.3766 	0.998727
0.3773 	0.998103
0.378 	0.997479
0.3787 	0.996855
0.3794 	0.996231
0.3801 	0.995488
0.3808 	0.982781
0.3815 	0.968165
0.3822 	0.953549
0.3829 	0.938933
0.3836 	0.924317
0.3843 	0.909701
0.385 	0.892324
0.3857 	0.843883
0.3864 	0.785521
0.3871 	0.727159
0.3878 	0.668796
0.3885 	0.610434
0.3892 	0.552072
0.3899 	0.489461
0.3906 	0.420074
0.3913 	0.364854
0.392 	0.309635
0.3927 	0.254415
0.3934 	0.199196
0.3941 	0.143976
0.3948 	0.0888533
0.3955 	0.068853
0.3962 	0.0578533
0.3969 	0.0468536
0.3976 	0.0358539
0.3983 	0.0248541
0.399 	0.0138544
0.3997 	0.00285471
0.4004 	0.00105825
0.4011 	0.000893194
0.4018 	0.000728139
0.4025 	0.000563084
0.4032 	0.000398029
0.4039 	0.000232974
0.4046 	6.79195e-05
0.4053 	1.7868e-05
0.406 	1.51455e-05
0.4067 	1.24231e-05
0.4074 	9.70057e-06
0.4081 	6.97809e-06
0.4088 	4.25562e-06
0.4095 	1.53314e-06
0.4102 	3.27546e-07
0.4109 	2.78087e-07
0.4116 	2.29519e-07
0.4123 	1.80951e-07
0.413 	1.32383e-07
0.4137 	8.38154e-08
0.4144 	3.52474e-08
0.4151 	7.1378e-09
0.4158 	5.91214e-09
0.4165 	4.92819e-09
0.4172 	3.94424e-09
0.4179 	2.96029e-09
0.4186 	1.97633e-09
0.4193 	9.92381e-10
0.42 	2.84469e-10
0.4207 	2.37261e-10
0.4214 	2.04177e-10
0.4221 	1.71093e-10
0.4228 	1.38009e-10
0.4235 	1.04925e-10
0.4242 	7.18404e-11
0.4249 	4.31125e-11
0.4256 	3.81446e-11
0.4263 	3.44582e-11
0.427 	3.07719e-11
0.4277 	2.70855e-11
0.4284 	2.33992e-11
0.4291 	1.97128e-11
0.4298 	1.60622e-11
0.4305 	1.44118e-11
0.4312 	1.33149e-11
0.4319 	1.22181e-11
0.4326 	1.11212e-11
0.4333 	1.00244e-11
0.434 	8.92751e-12
0.4347 	7.83065e-12
0.4354 	7.36521e-12
0.4361 	7.09062e-12
0.4368 	6.81603e-12
0.4375 	6.54144e-12
0.4382 	6.26685e-12
0.4389 	5.99226e-12
0.4396 	5.71768e-12
0.4403 	5.52133e-12
0.441 	5.29629e-12
0.4417 	5.07126e-12
0.4424 	4.84623e-12
0.4431 	4.62119e-12
0.4438 	4.39616e-12
0.4445 	4.17113e-12
0.4452 	3.90542e-12
0.4459 	3.6317e-12
0.4466 	3.35864e-12
0.4473 	3.08558e-12
0.448 	2.81253e-12
0.4487 	2.53947e-12
0.4494 	2.26642e-12
0.4501 	1.98736e-12
0.4508 	1.78684e-12
0.4515 	1.60646e-12
0.4522 	1.42609e-12
0.4529 	1.24571e-12
0.4536 	1.06533e-12
0.4543 	8.84958e-13
0.455 	7.26297e-13
0.4557 	6.41215e-13
0.4564 	5.73305e-13
0.4571 	5.05396e-13
0.4578 	4.37486e-13
0.4585 	3.69576e-13
0.4592 	3.01666e-13
0.4599 	2.39117e-13
0.4606 	2.08163e-13
0.4613 	1.854e-13
0.462 	1.62636e-13
0.4627 	1.39872e-13
0.4634 	1.17109e-13
0.4641 	9.43453e-14
0.4648 	7.19544e-14
0.4655 	6.10155e-14
0.4662 	5.38611e-14
0.4669 	4.67068e-14
0.4676 	3.95524e-14
0.4683 	3.2398e-14
0.469 	2.52436e-14
0.4697 	1.80892e-14
0.4704 	1.45881e-14
0.4711 	1.27898e-14
0.4718 	1.09916e-14
0.4725 	9.19332e-15
0.4732 	7.39508e-15
0.4739 	5.59684e-15
0.4746 	3.7986e-15
0.4753 	2.83102e-15
0.476 	2.47041e-15
0.4767 	2.10981e-15
0.4774 	1.7492e-15
0.4781 	1.3886e-15
0.4788 	1.02799e-15
0.4795 	6.67388e-16
0.4802 	4.50884e-16
0.4809 	3.89214e-16
0.4816 	3.30938e-16
0.4823 	2.72661e-16
0.483 	2.14385e-16
0.4837 	1.56108e-16
0.4844 	9.78319e-17
0.4851 	5.93778e-17
0.4858 	4.9748e-17
0.4865 	4.22025e-17
0.4872 	3.4657e-17
0.4879 	2.71115e-17
0.4886 	1.9566e-17
0.4893 	1.20205e-17
0.49 	6.43619e-18
0.4907 	5.22984e-18
0.4914 	4.43816e-18
0.4921 	3.64648e-18
0.4928 	2.8548e-18
0.4935 	2.06312e-18
0.4942 	1.27144e-18
0.4949 	6.02748e-19
0.4956 	4.80961e-19
0.4963 	4.09619e-19
0.497 	3.38277e-19
0.4977 	2.66935e-19
0.4984 	1.95592e-19
0.4991 	1.2425e-19
0.4998 	5.58307e-20
0.5005 	4.39049e-20
0.5012 	3.75622e-20
0.5019 	3.12194e-20
0.5026 	2.48767e-20
0.5033 	1.8534e-20
0.504 	1.21912e-20
0.5047 	5.84848e-21
0.5054 	4.15036e-21
0.5061 	3.55338e-21
0.5068 	2.95641e-21
0.5075 	2.35944e-21
0.5082 	1.76246e-21
0.5089 	1.16549e-21
0.5096 	5.68514e-22
0.5103 	3.40774e-22
0.511 	2.91099e-22
0.5117 	2.41423e-22
0.5124 	1.91748e-22
0.5131 	1.42073e-22
0.5138 	9.23983e-23
0.5145 	4.27233e-23
0.5152 	1.96138e-23
0.5159 	1.64705e-23
0.5166 	1.36283e-23
0.5173 	1.07861e-23
0.518 	7.94391e-24
0.5187 	5.10169e-24
0.5194 	2.25948e-24
0.5201 	6.81322e-25
0.5208 	5.48427e-25
0.5215 	4.53571e-25
0.5222 	3.58714e-25
0.5229 	2.63858e-25
0.5236 	1.69001e-25
0.5243 	7.41444e-26
0.525 	1.08252e-26
0.5257 	8.35469e-27
0.5264 	6.92575e-27
0.5271 	5.49681e-27
0.5278 	4.06787e-27
0.5285 	2.63893e-27
0.5292 	1.20999e-27
0.5299 	6.85629e-29
0.5306 	5.49492e-29
0.5313 	4.73192e-29
0.532 	3.96892e-29
0.5327 	3.20592e-29
0.5334 	2.44292e-29
0.5341 	1.67992e-29
0.5348 	9.57319e-30
0.5355 	8.56255e-30
0.5362 	7.71895e-30
0.5369 	6.87534e-30
0.5376 	6.03174e-30
0.5383 	5.18813e-30
0.539 	4.34452e-30
0.5397 	3.50092e-30
0.5404 	2.97975e-30
0.5411 	2.63686e-30
0.5418 	2.29397e-30
0.5425 	1.95109e-30
0.5432 	1.6082e-30
0.5439 	1.26531e-30
0.5446 	9.22421e-31
0.5453 	7.3837e-31
0.546 	6.50959e-31
0.5467 	5.63549e-31
0.5474 	4.76139e-31
0.5481 	3.88729e-31
0.5488 	3.01319e-31
0.5495 	2.13909e-31
0.5502 	1.60274e-31
0.5509 	1.39674e-31
0.5516 	1.20011e-31
0.5523 	1.00348e-31
0.553 	8.06853e-32
0.5537 	6.10225e-32
0.5544 	4.13597e-32
0.5551 	2.81694e-32
0.5558 	2.40247e-32
0.5565 	2.05066e-32
0.5572 	1.69886e-32
0.5579 	1.34705e-32
0.5586 	9.9524e-33
0.5593 	6.43432e-33
0.56 	3.82316e-33
0.5607 	3.1767e-33
0.5614 	2.69779e-33
0.5621 	2.21889e-33
0.5628 	1.73998e-33
0.5635 	1.26108e-33
0.5642 	7.82172e-34
0.5649 	3.83966e-34
0.5656 	3.09209e-34
0.5663 	2.61589e-34
0.567 	2.13969e-34
0.5677 	1.6635e-34
0.5684 	1.1873e-34
0.5691 	7.11098e-35
0.5698 	2.64031e-35
0.5705 	2.05378e-35
0.5712 	1.7333e-35
0.5719 	1.41282e-35
0.5726 	1.09234e-35
0.5733 	7.71856e-36
0.574 	4.51376e-36
0.5747 	1.30896e-36
0.5754 	8.30718e-37
0.5761 	7.01212e-37
0.5768 	5.71706e-37
0.5775 	4.422e-37
0.5782 	3.12694e-37
0.5789 	1.83188e-37
0.5796 	5.36816e-38
0.5803 	2.10147e-38
0.581 	1.81297e-38
0.5817 	1.52448e-38
0.5824 	1.23598e-38
0.5831 	9.47488e-39
0.5838 	6.58993e-39
0.5845 	3.70497e-39
0.5852 	2.46069e-39
0.5859 	2.21241e-39
0.5866 	1.97239e-39
0.5873 	1.73238e-39
0.588 	1.49236e-39
0.5887 	1.25235e-39
0.5894 	1.01233e-39
0.5901 	8.14074e-40
0.5908 	7.08408e-40
0.5915 	6.16054e-40
0.5922 	5.237e-40
0.5929 	4.31345e-40
0.5936 	3.38991e-40
0.5943 	2.46636e-40
0.595 	1.73231e-40
0.5957 	1.45497e-40
0.5964 	1.24944e-40
0.5971 	1.04391e-40
0.5978 	8.38372e-41
0.5985 	6.32838e-41
0.5992 	4.27305e-41
0.5999 	2.53788e-41
0.6006 	2.07569e-41
0.6013 	1.77475e-41
0.602 	1.4738e-41
0.6027 	1.17286e-41
0.6034 	8.71915e-42
0.6041 	5.7097e-42
0.6048 	2.88124e-42
0.6055 	2.27407e-42
0.6062 	1.93268e-42
0.6069 	1.59128e-42
0.6076 	1.24988e-42
0.6083 	9.08486e-43
0.609 	5.67089e-43
0.6097 	2.25692e-43
0.6104 	1.58026e-43
0.6111 	1.3383e-43
0.6118 	1.09634e-43
0.6125 	8.54382e-44
0.6132 	6.12423e-44
0.6139 	3.70465e-44
0.6146 	1.28507e-44
0.6153 	6.12238e-45
0.616 	5.17669e-45
0.6167 	4.23101e-45
0.6174 	3.28532e-45
0.6181 	2.33963e-45
0.6188 	1.39394e-45
0.6195 	4.48251e-46
0.6202 	9.59807e-47
0.6209 	7.93245e-47
0.6216 	6.49385e-47
0.6223 	5.05525e-47
0.623 	3.61665e-47
0.6237 	2.17806e-47
0.6244 	7.39457e-48
0.6251 	3.09097e-49
0.6258 	2.42513e-49
0.6265 	1.99463e-49
0.6272 	1.56413e-49
0.6279 	1.13362e-49
0.6286 	7.03118e-50
0.6293 	2.72613e-50
0.63 	1.02106e-52
0.6307 	7.40582e-53
0.6314 	6.12303e-53
0.6321 	4.84025e-53
0.6328 	3.55746e-53
0.6335 	2.27467e-53
0.6342 	9.91882e-54
0.6349 	4.76906e-57
0.6356 	3.41888e-57
0.6363 	2.84092e-57
0.637 	2.26296e-57
0.6377 	1.68499e-57
0.6384 	1.10703e-57
0.6391 	5.29068e-58
0.6398 	1.96562e-61
0.6405 	1.39201e-61
0.6412 	1.16221e-61
0.6419 	9.32419e-62
0.6426 	7.02626e-62
0.6433 	4.72833e-62
0.644 	2.43041e-62
0.6447 	1.32476e-63
0.6454 	5.33513e-66
0.6461 	4.47462e-66
0.6468 	3.61411e-66
0.6475 	2.7536e-66
0.6482 	1.89309e-66
0.6489 	1.03257e-66
0.6496 	1.72063e-67
0.6503 	1.97186e-70
0.651 	1.66096e-70
0.6517 	1.35005e-70
0.6524 	1.03915e-70
0.6531 	7.28239e-71
0.6538 	4.17333e-71
0.6545 	1.06427e-71
0.6552 	7.51063e-75
0.6559 	6.06731e-75
0.6566 	4.96109e-75
0.6573 	3.85487e-75
0.658 	2.74865e-75
0.6587 	1.64243e-75
0.6594 	5.3621e-76
0.6601 	2.9138e-79
0.6608 	2.20808e-79
0.6615 	1.81568e-79
0.6622 	1.42329e-79
0.6629 	1.03089e-79
0.6636 	6.38497e-80
0.6643 	2.46102e-80
0.665 	1.11857e-83
0.6657 	8.02064e-84
0.6664 	6.6305e-84
0.6671 	5.24037e-84
0.6678 	3.85024e-84
0.6685 	2.4601e-84
0.6692 	1.06997e-84
0.6699 	4.06952e-88
0.6706 	2.90098e-88
0.6713 	2.41031e-88
0.672 	1.91964e-88
0.6727 	1.42896e-88
0.6734 	9.38288e-89
0.6741 	4.47615e-89
0.6748 	1.49169e-92
0.6755 	1.05612e-92
0.6762 	8.81692e-93
0.6769 	7.07268e-93
0.6776 	5.32844e-93
0.6783 	3.58419e-93
0.679 	1.83995e-93
0.6797 	9.571e-95
0.6804 	4.10634e-97
0.6811 	3.44377e-97
0.6818 	2.7812e-97
0.6825 	2.11863e-97
0.6832 	1.45607e-97
0.6839 	7.93497e-98
0.6846 	1.30928e-98
0.6853 	1.9726e-101
0.686 	1.66149e-101
0.6867 	1.35037e-101
0.6874 	1.03926e-101
0.6881 	7.28151e-102
0.6888 	4.1704e-102
0.6895 	1.05928e-102
0.6902 	1.39407e-105
0.6909 	1.12998e-105
0.6916 	9.23907e-106
0.6923 	7.17835e-106
0.693 	5.11763e-106
0.6937 	3.0569e-106
0.6944 	9.96183e-107
0.6951 	1.30369e-109
0.6958 	9.97197e-110
0.6965 	8.19933e-110
0.6972 	6.42669e-110
0.6979 	4.65404e-110
0.6986 	2.8814e-110
0.6993 	1.10876e-110
0.7 	0
