0 	1
0.0007 	1
0.0014 	1
0.0021 	1
0.0028 	1
0.0035 	1
0.0042 	1
0.0049 	1
0.0056 	1
0.0063 	1
0.007 	1
0.0077 	1
0.0084 	1
0.0091 	1
0.0098 	1
0.0105 	1
0.0112 	1
0.0119 	1
0.0126 	1
0.0133 	1
0.014 	1
0.0147 	1
0.0154 	1
0.0161 	1
0.0168 	1
0.0175 	1
0.0182 	1
0.0189 	1
0.0196 	1
0.0203 	1
0.021 	1
0.0217 	1
0.0224 	1
0.0231 	1
0.0238 	1
0.0245 	1
0.0252 	1
0.0259 	1
0.0266 	1
0.0273 	1
0.028 	1
0.0287 	1
0.0294 	1
0.0301 	1
0.0308 	1
0.0315 	1
0.0322 	1
0.0329 	1
0.0336 	1
0.0343 	1
0.035 	1
0.0357 	1
0.0364 	1
0.0371 	1
0.0378 	1
0.0385 	1
0.0392 	1
0.0399 	1
0.0406 	1
0.0413 	1
0.042 	1
0.0427 	1
0.0434 	1
0.0441 	1
0.0448 	1
0.0455 	1
0.0462 	1
0.0469 	1
0.0476 	1
0.0483 	1
0.049 	1
0.0497 	1
0.0504 	1
0.0511 	1
0.0518 	1
0.0525 	1
0.0532 	1
0.0539 	1
0.0546 	1
0.0553 	1
0.056 	1
0.0567 	1
0.0574 	1
0.0581 	1
0.0588 	1
0.0595 	1
0.0602 	1
0.0609 	1
0.0616 	1
0.0623 	1
0.063 	1
0.0637 	1
0.0644 	1
0.0651 	1
0.0658 	1
0.0665 	1
0.0672 	1
0.0679 	1
0.0686 	1
0.0693 	1
0.07 	1
0.0707 	1
0.0714 	1
0.0721 	1
0.0728 	1
0.0735 	1
0.0742 	1
0.0749 	1
0.0756 	1
0.0763 	1
0.077 	1
0.0777 	1
0.0784 	1
0.0791 	1
0.0798 	1
0.0805 	1
0.0812 	1
0.0819 	1
0.0826 	1
0.0833 	1
0.084 	1
0.0847 	1
0.0854 	1
0.0861 	1
0.0868 	1
0.0875 	1
0.0882 	1
0.0889 	1
0.0896 	1
0.0903 	1
0.091 	1
0.0917 	1
0.0924 	1
0.0931 	1
0.0938 	1
0.0945 	1
0.0952 	1
0.0959 	1
0.0966 	1
0.0973 	1
0.098 	1
0.0987 	1
0.0994 	1
0.1001 	1
0.1008 	1
0.1015 	1
0.1022 	1
0.1029 	1
0.1036 	1
0.1043 	1
0.105 	1
0.1057 	1
0.1064 	1
0.1071 	1
0.1078 	1
0.1085 	1
0.1092 	1
0.1099 	1
0.1106 	1
0.1113 	1
0.112 	1
0.1127 	1
0.1134 	1
0.1141 	1
0.1148 	1
0.1155 	1
0.1162 	1
0.1169 	1
0.1176 	1
0.1183 	1
0.119 	1
0.1197 	1
0.1204 	1
0.1211 	1
0.1218 	1
0.1225 	1
0.1232 	1
0.1239 	1
0.1246 	1
0.1253 	1
0.126 	1
0.1267 	1
0.1274 	1
0.1281 	1
0.1288 	1
0.1295 	1
0.1302 	1
0.1309 	1
0.1316 	1
0.1323 	1
0.133 	1
0.1337 	1
0.1344 	1
0.1351 	1
0.1358 	1
0.1365 	1
0.1372 	1
0.1379 	1
0.1386 	1
0.1393 	1
0.14 	1
0.1407 	1
0.1414 	1
0.1421 	1
0.1428 	1
0.1435 	1
0.1442 	1
0.1449 	1
0.1456 	1
0.1463 	1
0.147 	1
0.1477 	1
0.1484 	1
0.1491 	1
0.1498 	1
0.1505 	1
0.1512 	1
0.1519 	1
0.1526 	1
0.1533 	1
0.154 	1
0.1547 	1
0.1554 	1
0.1561 	1
0.1568 	1
0.1575 	1
0.1582 	1
0.1589 	1
0.1596 	1
0.1603 	1
0.161 	1
0.1617 	1
0.1624 	1
0.1631 	1
0.1638 	1
0.1645 	1
0.1652 	1
0.1659 	1
0.1666 	1
0.1673 	1
0.168 	1
0.1687 	1
0.1694 	1
0.1701 	1
0.1708 	1
0.1715 	1
0.1722 	1
0.1729 	1
0.1736 	1
0.1743 	1
0.175 	1
0.1757 	1
0.1764 	1
0.1771 	1
0.1778 	1
0.1785 	1
0.1792 	1
0.1799 	1
0.1806 	1
0.1813 	1
0.182 	1
0.1827 	1
0.1834 	1
0.1841 	1
0.1848 	1
0.1855 	1
0.1862 	1
0.1869 	1
0.1876 	1
0.1883 	1
0.189 	1
0.1897 	1
0.1904 	1
0.1911 	1
0.1918 	1
0.1925 	1
0.1932 	1
0.1939 	1
0.1946 	1
0.1953 	1
0.196 	1
0.1967 	1
0.1974 	1
0.1981 	1
0.1988 	1
0.1995 	1
0.2002 	1
0.2009 	1
0.2016 	1
0.2023 	1
0.203 	1
0.2037 	1
0.2044 	1
0.2051 	1
0.2058 	1
0.2065 	1
0.2072 	1
0.2079 	1
0.2086 	1
0.2093 	1
0.21 	1
0.2107 	1
0.2114 	1
0.2121 	1
0.2128 	1
0.2135 	1
0.2142 	1
0.2149 	1
0.2156 	1
0.2163 	1
0.217 	1
0.2177 	1
0.2184 	1
0.2191 	1
0.2198 	1
0.2205 	1
0.2212 	1
0.2219 	1
0.2226 	1
0.2233 	1
0.224 	1
0.2247 	1
0.2254 	1
0.2261 	1
0.2268 	1
0.2275 	1
0.2282 	1
0.2289 	1
0.2296 	1
0.2303 	1
0.231 	1
0.2317 	1
0.2324 	1
0.2331 	1
0.2338 	1
0.2345 	1
0.2352 	1
0.2359 	1
0.2366 	1
0.2373 	1
0.238 	1
0.2387 	1
0.2394 	1
0.2401 	1
0.2408 	1
0.2415 	1
0.2422 	1
0.2429 	1
0.2436 	1
0.2443 	1
0.245 	1
0.2457 	1
0.2464 	1
0.2471 	1
0.2478 	1
0.2485 	1
0.2492 	1
0.2499 	1
0.2506 	1
0.2513 	1
0.252 	1
0.2527 	1
0.2534 	1
0.2541 	1
0.2548 	1
0.2555 	1
0.2562 	1
0.2569 	1
0.2576 	1
0.2583 	1
0.259 	1
0.2597 	1
0.2604 	1
0.2611 	1
0.2618 	1
0.2625 	1
0.2632 	1
0.2639 	1
0.2646 	1
0.2653 	1
0.266 	1
0.2667 	1
0.2674 	1
0.2681 	1
0.2688 	1
0.2695 	1
0.2702 	1
0.2709 	1
0.2716 	1
0.2723 	1
0.273 	1
0.2737 	1
0.2744 	1
0.2751 	1
0.2758 	1
0.2765 	1
0.2772 	1
0.2779 	1
0.2786 	1
0.2793 	1
0.28 	1
0.2807 	1
0.2814 	1
0.2821 	1
0.2828 	1
0.2835 	1
0.2842 	1
0.2849 	1
0.2856 	1
0.2863 	1
0.287 	1
0.2877 	1
0.2884 	1
0.2891 	1
0.2898 	1
0.2905 	1
0.2912 	1
0.2919 	1
0.2926 	1
0.2933 	1
0.294 	1
0.2947 	1
0.2954 	1
0.2961 	1
0.2968 	1
0.2975 	1
0.2982 	1
0.2989 	1
0.2996 	1
0.3003 	1
0.301 	1
0.3017 	1
0.3024 	1
0.3031 	1
0.3038 	1
0.3045 	1
0.3052 	1
0.3059 	1
0.3066 	1
0.3073 	1
0.308 	1
0.3087 	1
0.3094 	1
0.3101 	1
0.3108 	1
0.3115 	1
0.3122 	1
0.3129 	1
0.3136 	1
0.3143 	1
0.315 	1
0.3157 	1
0.3164 	1
0.3171 	1
0.3178 	1
0.3185 	1
0.3192 	1
0.3199 	1
0.3206 	1
0.3213 	1
0.322 	1
0.3227 	1
0.3234 	1
0.3241 	1
0.3248 	1
0.3255 	1
0.3262 	1
0.3269 	1
0.3276 	1
0.3283 	1
0.329 	1
0.3297 	1
0.3304 	1
0.3311 	1
0.3318 	1
0.3325 	1
0.3332 	1
0.3339 	1
0.3346 	1
0.3353 	1
0.336 	1
0.3367 	1
0.3374 	1
0.3381 	1
0.3388 	1
0.3395 	1
0.3402 	1
0.3409 	1
0.3416 	1
0.3423 	1
0.343 	1
0.3437 	1
0.3444 	1
0.3451 	1
0.3458 	1
0.3465 	1
0.3472 	1
0.3479 	1
0.3486 	1
0.3493 	1
0.35 	1
0.3507 	1
0.3514 	1
0.3521 	1
0.3528 	1
0.3535 	1
0.3542 	1
0.3549 	1
0.3556 	1
0.3563 	1
0.357 	1
0.3577 	1
0.3584 	1
0.3591 	1
0.3598 	1
0.3605 	1
0.3612 	1
0.3619 	1
0.3626 	1
0.3633 	1
0.364 	1
0.3647 	1
0.3654 	1
0.3661 	1
0.3668 	1
0.3675 	1
0.3682 	1
0.3689 	1
0.3696 	1
0.3703 	1
0.371 	1
0.3717 	1
0.3724 	1
0.3731 	1
0.3738 	1
0.3745 	1
0.3752 	1
0.3759 	0.999999
0.3766 	0.999999
0.3773 	0.999998
0.378 	0.999998
0.3787 	0.999997
0.3794 	0.999997
0.3801 	0.999995
0.3808 	0.999989
0.3815 	0.999983
0.3822 	0.999977
0.3829 	0.999971
0.3836 	0.999964
0.3843 	0.999958
0.385 	0.999952
0.3857 	0.999844
0.3864 	0.999736
0.3871 	0.999628
0.3878 	0.999519
0.3885 	0.999411
0.3892 	0.999302
0.3899 	0.999194
0.3906 	0.995056
0.3913 	0.990186
0.392 	0.985316
0.3927 	0.980446
0.3934 	0.975576
0.3941 	0.970705
0.3948 	0.965835
0.3955 	0.932002
0.3962 	0.886179
0.3969 	0.840356
0.3976 	0.794533
0.3983 	0.74871
0.399 	0.702887
0.3997 	0.657064
0.4004 	0.600368
0.4011 	0.536914
0.4018 	0.47346
0.4025 	0.410007
0.4032 	0.346553
0.4039 	0.283099
0.4046 	0.219646
0.4053 	0.173254
0.406 	0.1492
0.4067 	0.125147
0.4074 	0.101094
0.4081 	0.0770406
0.4088 	0.0529873
0.4095 	0.0289341
0.4102 	0.0115392
0.4109 	0.00986874
0.4116 	0.00819828
0.4123 	0.00652781
0.413 	0.00485734
0.4137 	0.00318688
0.4144 	0.00151641
0.4151 	0.000102974
0.4158 	8.82471e-05
0.4165 	7.35203e-05
0.4172 	5.87936e-05
0.4179 	4.40669e-05
0.4186 	2.93401e-05
0.4193 	1.46134e-05
0.42 	7.03578e-08
0.4207 	6.0477e-08
0.4214 	5.06155e-08
0.4221 	4.07541e-08
0.4228 	3.08926e-08
0.4235 	2.10312e-08
0.4242 	1.11697e-08
0.4249 	1.30826e-09
0.4256 	2.39871e-11
0.4263 	2.44788e-11
0.427 	2.49705e-11
0.4277 	2.54623e-11
0.4284 	2.5954e-11
0.4291 	2.64457e-11
0.4298 	2.69375e-11
0.4305 	2.73109e-11
0.4312 	2.76237e-11
0.4319 	2.79365e-11
0.4326 	2.82493e-11
0.4333 	2.8562e-11
0.434 	2.88748e-11
0.4347 	2.91876e-11
0.4354 	2.88182e-11
0.4361 	2.79524e-11
0.4368 	2.70867e-11
0.4375 	2.62209e-11
0.4382 	2.53552e-11
0.4389 	2.44894e-11
0.4396 	2.36237e-11
0.4403 	2.26493e-11
0.441 	2.15484e-11
0.4417 	2.04476e-11
0.4424 	1.93467e-11
0.4431 	1.82458e-11
0.4438 	1.71449e-11
0.4445 	1.60441e-11
0.4452 	1.50521e-11
0.4459 	1.43231e-11
0.4466 	1.35942e-11
0.4473 	1.28652e-11
0.448 	1.21363e-11
0.4487 	1.14074e-11
0.4494 	1.06784e-11
0.4501 	9.98581e-12
0.4508 	9.49039e-12
0.4515 	8.99497e-12
0.4522 	8.49954e-12
0.4529 	8.00412e-12
0.4536 	7.5087e-12
0.4543 	7.01328e-12
0.455 	6.5185e-12
0.4557 	6.09635e-12
0.4564 	5.67464e-12
0.4571 	5.25292e-12
0.4578 	4.83121e-12
0.4585 	4.4095e-12
0.4592 	3.98778e-12
0.4599 	3.56607e-12
0.4606 	3.24805e-12
0.4613 	2.94761e-12
0.462 	2.64718e-12
0.4627 	2.34674e-12
0.4634 	2.04631e-12
0.4641 	1.74588e-12
0.4648 	1.44544e-12
0.4655 	1.25961e-12
0.4662 	1.1187e-12
0.4669 	9.77789e-13
0.4676 	8.36877e-13
0.4683 	6.95965e-13
0.469 	5.55054e-13
0.4697 	4.14142e-13
0.4704 	3.31742e-13
0.4711 	2.91735e-13
0.4718 	2.51728e-13
0.4725 	2.11721e-13
0.4732 	1.71713e-13
0.4739 	1.31706e-13
0.4746 	9.1699e-14
0.4753 	6.58595e-14
0.476 	5.81318e-14
0.4767 	5.04042e-14
0.4774 	4.26765e-14
0.4781 	3.49488e-14
0.4788 	2.72212e-14
0.4795 	1.94935e-14
0.4802 	1.36025e-14
0.4809 	1.2082e-14
0.4816 	1.05615e-14
0.4823 	9.04105e-15
0.483 	7.52058e-15
0.4837 	6.00011e-15
0.4844 	4.47964e-15
0.4851 	3.13536e-15
0.4858 	2.77586e-15
0.4865 	2.41636e-15
0.4872 	2.05685e-15
0.4879 	1.69735e-15
0.4886 	1.33785e-15
0.4893 	9.78349e-16
0.49 	6.22121e-16
0.4907 	5.45509e-16
0.4914 	4.69565e-16
0.4921 	3.93621e-16
0.4928 	3.17677e-16
0.4935 	2.41732e-16
0.4942 	1.65788e-16
0.4949 	8.98442e-17
0.4956 	7.08205e-17
0.4963 	6.0433e-17
0.497 	5.00455e-17
0.4977 	3.9658e-17
0.4984 	2.92705e-17
0.4991 	1.88831e-17
0.4998 	8.49556e-18
0.5005 	5.1057e-18
0.5012 	4.34414e-18
0.5019 	3.58257e-18
0.5026 	2.82101e-18
0.5033 	2.05945e-18
0.504 	1.29788e-18
0.5047 	5.36322e-19
0.5054 	2.0256e-19
0.5061 	1.72488e-19
0.5068 	1.42416e-19
0.5075 	1.12344e-19
0.5082 	8.22715e-20
0.5089 	5.21992e-20
0.5096 	2.2127e-20
0.5103 	5.02955e-21
0.511 	4.29104e-21
0.5117 	3.55254e-21
0.5124 	2.81403e-21
0.5131 	2.07553e-21
0.5138 	1.33703e-21
0.5145 	5.98521e-22
0.5152 	7.79739e-23
0.5159 	6.66732e-23
0.5166 	5.53724e-23
0.5173 	4.40716e-23
0.518 	3.27708e-23
0.5187 	2.147e-23
0.5194 	1.01692e-23
0.5201 	6.29656e-25
0.5208 	5.40162e-25
0.5215 	4.50669e-25
0.5222 	3.61175e-25
0.5229 	2.71681e-25
0.5236 	1.82188e-25
0.5243 	9.26941e-26
0.525 	4.48035e-27
0.5257 	3.88341e-27
0.5264 	3.29291e-27
0.5271 	2.70241e-27
0.5278 	2.1119e-27
0.5285 	1.5214e-27
0.5292 	9.30902e-28
0.5299 	3.40401e-28
0.5306 	2.37084e-28
0.5313 	2.0625e-28
0.532 	1.75415e-28
0.5327 	1.44581e-28
0.5334 	1.13747e-28
0.5341 	8.29122e-29
0.5348 	5.20778e-29
0.5355 	4.00263e-29
0.5362 	3.50914e-29
0.5369 	3.01565e-29
0.5376 	2.52216e-29
0.5383 	2.02867e-29
0.539 	1.53519e-29
0.5397 	1.0417e-29
0.5404 	7.81342e-30
0.5411 	6.88094e-30
0.5418 	5.94847e-30
0.5425 	5.016e-30
0.5432 	4.08353e-30
0.5439 	3.15105e-30
0.5446 	2.21858e-30
0.5453 	1.6174e-30
0.546 	1.43653e-30
0.5467 	1.25567e-30
0.5474 	1.0748e-30
0.5481 	8.93936e-31
0.5488 	7.1307e-31
0.5495 	5.32203e-31
0.5502 	3.92156e-31
0.5509 	3.4844e-31
0.5516 	3.04723e-31
0.5523 	2.61007e-31
0.553 	2.17291e-31
0.5537 	1.73575e-31
0.5544 	1.29859e-31
0.5551 	9.11486e-32
0.5558 	8.00834e-32
0.5565 	6.90183e-32
0.5572 	5.79531e-32
0.5579 	4.68879e-32
0.5586 	3.58228e-32
0.5593 	2.47576e-32
0.56 	1.38158e-32
0.5607 	1.19809e-32
0.5614 	1.01631e-32
0.5621 	8.34531e-33
0.5628 	6.52752e-33
0.5635 	4.70974e-33
0.5642 	2.89195e-33
0.5649 	1.07417e-33
0.5656 	7.38617e-34
0.5663 	6.22769e-34
0.567 	5.06922e-34
0.5677 	3.91074e-34
0.5684 	2.75226e-34
0.5691 	1.59379e-34
0.5698 	4.35313e-35
0.5705 	1.09146e-35
0.5712 	9.21672e-36
0.5719 	7.51886e-36
0.5726 	5.821e-36
0.5733 	4.12314e-36
0.574 	2.42529e-36
0.5747 	7.2743e-37
0.5754 	2.33709e-38
0.5761 	1.9807e-38
0.5768 	1.62432e-38
0.5775 	1.26793e-38
0.5782 	9.11542e-39
0.5789 	5.55155e-39
0.5796 	1.98768e-39
0.5803 	5.04965e-42
0.581 	4.29594e-42
0.5817 	3.54223e-42
0.5824 	2.78852e-42
0.5831 	2.0348e-42
0.5838 	1.28109e-42
0.5845 	5.27377e-43
0.5852 	4.97123e-46
0.5859 	4.27336e-46
0.5866 	3.57549e-46
0.5873 	2.87762e-46
0.588 	2.17975e-46
0.5887 	1.48188e-46
0.5894 	7.84013e-47
0.5901 	1.93659e-47
0.5908 	1.75189e-47
0.5915 	1.56719e-47
0.5922 	1.38248e-47
0.5929 	1.19778e-47
0.5936 	1.01307e-47
0.5943 	8.28371e-48
0.595 	6.46341e-48
0.5957 	5.89187e-48
0.5964 	5.3223e-48
0.5971 	4.75273e-48
0.5978 	4.18316e-48
0.5985 	3.6136e-48
0.5992 	3.04403e-48
0.5999 	2.47446e-48
0.6006 	2.18524e-48
0.6013 	1.93467e-48
0.602 	1.68411e-48
0.6027 	1.43354e-48
0.6034 	1.18297e-48
0.6041 	9.32402e-49
0.6048 	6.81834e-49
0.6055 	5.59061e-49
0.6062 	4.83202e-49
0.6069 	4.07342e-49
0.6076 	3.31482e-49
0.6083 	2.55623e-49
0.609 	1.79763e-49
0.6097 	1.03904e-49
0.6104 	6.68097e-50
0.6111 	5.69747e-50
0.6118 	4.71396e-50
0.6125 	3.73045e-50
0.6132 	2.74695e-50
0.6139 	1.76344e-50
0.6146 	7.79939e-51
0.6153 	2.18831e-51
0.616 	1.86334e-51
0.6167 	1.53837e-51
0.6174 	1.2134e-51
0.6181 	8.88428e-52
0.6188 	5.63458e-52
0.6195 	2.38487e-52
0.6202 	1.09564e-53
0.6209 	9.35569e-54
0.6216 	7.75498e-54
0.6223 	6.15427e-54
0.623 	4.55356e-54
0.6237 	2.95286e-54
0.6244 	1.35215e-54
0.6251 	5.04647e-57
0.6258 	4.32396e-57
0.6265 	3.60145e-57
0.6272 	2.87894e-57
0.6279 	2.15642e-57
0.6286 	1.43391e-57
0.6293 	7.114e-58
0.63 	2.21341e-61
0.6307 	1.90145e-61
0.6314 	1.59114e-61
0.6321 	1.28082e-61
0.6328 	9.70498e-62
0.6335 	6.6018e-62
0.6342 	3.49861e-62
0.6349 	3.95425e-63
0.6356 	7.94274e-66
0.6363 	6.676e-66
0.637 	5.40927e-66
0.6377 	4.14253e-66
0.6384 	2.8758e-66
0.6391 	1.60906e-66
0.6398 	3.42326e-67
0.6405 	3.24268e-70
0.6412 	2.73705e-70
0.6419 	2.23141e-70
0.6426 	1.72578e-70
0.6433 	1.22014e-70
0.644 	7.14505e-71
0.6447 	2.0887e-71
0.6454 	1.39348e-74
0.6461 	1.18093e-74
0.6468 	9.68381e-75
0.6475 	7.55829e-75
0.6482 	5.43278e-75
0.6489 	3.30727e-75
0.6496 	1.18175e-75
0.6503 	7.42811e-79
0.651 	6.31927e-79
0.6517 	5.21043e-79
0.6524 	4.10158e-79
0.6531 	2.99274e-79
0.6538 	1.8839e-79
0.6545 	7.75059e-80
0.6552 	5.71705e-83
0.6559 	4.88147e-83
0.6566 	4.04588e-83
0.6573 	3.2103e-83
0.658 	2.37472e-83
0.6587 	1.53913e-83
0.6594 	7.03547e-84
0.6601 	5.77967e-87
0.6608 	4.95222e-87
0.6615 	4.12476e-87
0.6622 	3.2973e-87
0.6629 	2.46985e-87
0.6636 	1.64239e-87
0.6643 	8.14938e-88
0.665 	6.30602e-91
0.6657 	5.41644e-91
0.6664 	4.53251e-91
0.6671 	3.64858e-91
0.6678 	2.76465e-91
0.6685 	1.88072e-91
0.6692 	9.96796e-92
0.6699 	1.12867e-92
0.6706 	5.74985e-95
0.6713 	4.83288e-95
0.672 	3.91591e-95
0.6727 	2.99894e-95
0.6734 	2.08197e-95
0.6741 	1.165e-95
0.6748 	2.48025e-96
0.6755 	5.72726e-99
0.6762 	4.83422e-99
0.6769 	3.94119e-99
0.6776 	3.04816e-99
0.6783 	2.15513e-99
0.679 	1.2621e-99
0.6797 	3.69071e-100
0.6804 	5.3162e-103
0.6811 	4.50532e-103
0.6818 	3.69444e-103
0.6825 	2.88356e-103
0.6832 	2.07268e-103
0.6839 	1.2618e-103
0.6846 	4.50916e-104
0.6853 	4.60644e-107
0.686 	3.9188e-107
0.6867 	3.23115e-107
0.6874 	2.54351e-107
0.6881 	1.85587e-107
0.6888 	1.16823e-107
0.6895 	4.80587e-108
0.6902 	3.74166e-111
0.6909 	3.19477e-111
0.6916 	2.64788e-111
0.6923 	2.10099e-111
0.693 	1.5541e-111
0.6937 	1.00721e-111
0.6944 	4.60322e-112
0.6951 	2.86276e-115
0.6958 	2.45291e-115
0.6965 	2.04306e-115
0.6972 	1.63321e-115
0.6979 	1.22336e-115
0.6986 	8.13516e-116
0.6993 	4.03668e-116
0.7 	3.65233e-119
