// State file for writer output

times           1024 ( 25 25.0244140625 25.048828125 25.0732421875 25.09765625 25.1220703125 25.146484375 25.1708984375 25.1953125 25.2197265625 25.244140625 25.2685546875 25.29296875 25.3173828125 25.341796875 25.3662109375 25.390625 25.4150390625 25.439453125 25.4638671875 25.48828125 25.5126953125 25.537109375 25.5615234375 25.5859375 25.6103515625 25.634765625 25.6591796875 25.68359375 25.7080078125 25.732421875 25.7568359375 25.78125 25.8056640625 25.830078125 25.8544921875 25.87890625 25.9033203125 25.927734375 25.9521484375 25.9765625 26.0009765625 26.025390625 26.0498046875 26.07421875 26.0986328125 26.123046875 26.1474609375 26.171875 26.1962890625 26.220703125 26.2451171875 26.26953125 26.2939453125 26.318359375 26.3427734375 26.3671875 26.3916015625 26.416015625 26.4404296875 26.46484375 26.4892578125 26.513671875 26.5380859375 26.5625 26.5869140625 26.611328125 26.6357421875 26.66015625 26.6845703125 26.708984375 26.7333984375 26.7578125 26.7822265625 26.806640625 26.8310546875 26.85546875 26.8798828125 26.904296875 26.9287109375 26.953125 26.9775390625 27.001953125 27.0263671875 27.05078125 27.0751953125 27.099609375 27.1240234375 27.1484375 27.1728515625 27.197265625 27.2216796875 27.24609375 27.2705078125 27.294921875 27.3193359375 27.34375 27.3681640625 27.392578125 27.4169921875 27.44140625 27.4658203125 27.490234375 27.5146484375 27.5390625 27.5634765625 27.587890625 27.6123046875 27.63671875 27.6611328125 27.685546875 27.7099609375 27.734375 27.7587890625 27.783203125 27.8076171875 27.83203125 27.8564453125 27.880859375 27.9052734375 27.9296875 27.9541015625 27.978515625 28.0029296875 28.02734375 28.0517578125 28.076171875 28.1005859375 28.125 28.1494140625 28.173828125 28.1982421875 28.22265625 28.2470703125 28.271484375 28.2958984375 28.3203125 28.3447265625 28.369140625 28.3935546875 28.41796875 28.4423828125 28.466796875 28.4912109375 28.515625 28.5400390625 28.564453125 28.5888671875 28.61328125 28.6376953125 28.662109375 28.6865234375 28.7109375 28.7353515625 28.759765625 28.7841796875 28.80859375 28.8330078125 28.857421875 28.8818359375 28.90625 28.9306640625 28.955078125 28.9794921875 29.00390625 29.0283203125 29.052734375 29.0771484375 29.1015625 29.1259765625 29.150390625 29.1748046875 29.19921875 29.2236328125 29.248046875 29.2724609375 29.296875 29.3212890625 29.345703125 29.3701171875 29.39453125 29.4189453125 29.443359375 29.4677734375 29.4921875 29.5166015625 29.541015625 29.5654296875 29.58984375 29.6142578125 29.638671875 29.6630859375 29.6875 29.7119140625 29.736328125 29.7607421875 29.78515625 29.8095703125 29.833984375 29.8583984375 29.8828125 29.9072265625 29.931640625 29.9560546875 29.98046875 30.0048828125 30.029296875 30.0537109375 30.078125 30.1025390625 30.126953125 30.1513671875 30.17578125 30.2001953125 30.224609375 30.2490234375 30.2734375 30.2978515625 30.322265625 30.3466796875 30.37109375 30.3955078125 30.419921875 30.4443359375 30.46875 30.4931640625 30.517578125 30.5419921875 30.56640625 30.5908203125 30.615234375 30.6396484375 30.6640625 30.6884765625 30.712890625 30.7373046875 30.76171875 30.7861328125 30.810546875 30.8349609375 30.859375 30.8837890625 30.908203125 30.9326171875 30.95703125 30.9814453125 31.005859375 31.0302734375 31.0546875 31.0791015625 31.103515625 31.1279296875 31.15234375 31.1767578125 31.201171875 31.2255859375 31.25 31.2744140625 31.298828125 31.3232421875 31.34765625 31.3720703125 31.396484375 31.4208984375 31.4453125 31.4697265625 31.494140625 31.5185546875 31.54296875 31.5673828125 31.591796875 31.6162109375 31.640625 31.6650390625 31.689453125 31.7138671875 31.73828125 31.7626953125 31.787109375 31.8115234375 31.8359375 31.8603515625 31.884765625 31.9091796875 31.93359375 31.9580078125 31.982421875 32.0068359375 32.03125 32.0556640625 32.080078125 32.1044921875 32.12890625 32.1533203125 32.177734375 32.2021484375 32.2265625 32.2509765625 32.275390625 32.2998046875 32.32421875 32.3486328125 32.373046875 32.3974609375 32.421875 32.4462890625 32.470703125 32.4951171875 32.51953125 32.5439453125 32.568359375 32.5927734375 32.6171875 32.6416015625 32.666015625 32.6904296875 32.71484375 32.7392578125 32.763671875 32.7880859375 32.8125 32.8369140625 32.861328125 32.8857421875 32.91015625 32.9345703125 32.958984375 32.9833984375 33.0078125 33.0322265625 33.056640625 33.0810546875 33.10546875 33.1298828125 33.154296875 33.1787109375 33.203125 33.2275390625 33.251953125 33.2763671875 33.30078125 33.3251953125 33.349609375 33.3740234375 33.3984375 33.4228515625 33.447265625 33.4716796875 33.49609375 33.5205078125 33.544921875 33.5693359375 33.59375 33.6181640625 33.642578125 33.6669921875 33.69140625 33.7158203125 33.740234375 33.7646484375 33.7890625 33.8134765625 33.837890625 33.8623046875 33.88671875 33.9111328125 33.935546875 33.9599609375 33.984375 34.0087890625 34.033203125 34.0576171875 34.08203125 34.1064453125 34.130859375 34.1552734375 34.1796875 34.2041015625 34.228515625 34.2529296875 34.27734375 34.3017578125 34.326171875 34.3505859375 34.375 34.3994140625 34.423828125 34.4482421875 34.47265625 34.4970703125 34.521484375 34.5458984375 34.5703125 34.5947265625 34.619140625 34.6435546875 34.66796875 34.6923828125 34.716796875 34.7412109375 34.765625 34.7900390625 34.814453125 34.8388671875 34.86328125 34.8876953125 34.912109375 34.9365234375 34.9609375 34.9853515625 35.009765625 35.0341796875 35.05859375 35.0830078125 35.107421875 35.1318359375 35.15625 35.1806640625 35.205078125 35.2294921875 35.25390625 35.2783203125 35.302734375 35.3271484375 35.3515625 35.3759765625 35.400390625 35.4248046875 35.44921875 35.4736328125 35.498046875 35.5224609375 35.546875 35.5712890625 35.595703125 35.6201171875 35.64453125 35.6689453125 35.693359375 35.7177734375 35.7421875 35.7666015625 35.791015625 35.8154296875 35.83984375 35.8642578125 35.888671875 35.9130859375 35.9375 35.9619140625 35.986328125 36.0107421875 36.03515625 36.0595703125 36.083984375 36.1083984375 36.1328125 36.1572265625 36.181640625 36.2060546875 36.23046875 36.2548828125 36.279296875 36.3037109375 36.328125 36.3525390625 36.376953125 36.4013671875 36.42578125 36.4501953125 36.474609375 36.4990234375 36.5234375 36.5478515625 36.572265625 36.5966796875 36.62109375 36.6455078125 36.669921875 36.6943359375 36.71875 36.7431640625 36.767578125 36.7919921875 36.81640625 36.8408203125 36.865234375 36.8896484375 36.9140625 36.9384765625 36.962890625 36.9873046875 37.01171875 37.0361328125 37.060546875 37.0849609375 37.109375 37.1337890625 37.158203125 37.1826171875 37.20703125 37.2314453125 37.255859375 37.2802734375 37.3046875 37.3291015625 37.353515625 37.3779296875 37.40234375 37.4267578125 37.451171875 37.4755859375 37.5 37.5244140625 37.548828125 37.5732421875 37.59765625 37.6220703125 37.646484375 37.6708984375 37.6953125 37.7197265625 37.744140625 37.7685546875 37.79296875 37.8173828125 37.841796875 37.8662109375 37.890625 37.9150390625 37.939453125 37.9638671875 37.98828125 38.0126953125 38.037109375 38.0615234375 38.0859375 38.1103515625 38.134765625 38.1591796875 38.18359375 38.2080078125 38.232421875 38.2568359375 38.28125 38.3056640625 38.330078125 38.3544921875 38.37890625 38.4033203125 38.427734375 38.4521484375 38.4765625 38.5009765625 38.525390625 38.5498046875 38.57421875 38.5986328125 38.623046875 38.6474609375 38.671875 38.6962890625 38.720703125 38.7451171875 38.76953125 38.7939453125 38.818359375 38.8427734375 38.8671875 38.8916015625 38.916015625 38.9404296875 38.96484375 38.9892578125 39.013671875 39.0380859375 39.0625 39.0869140625 39.111328125 39.1357421875 39.16015625 39.1845703125 39.208984375 39.2333984375 39.2578125 39.2822265625 39.306640625 39.3310546875 39.35546875 39.3798828125 39.404296875 39.4287109375 39.453125 39.4775390625 39.501953125 39.5263671875 39.55078125 39.5751953125 39.599609375 39.6240234375 39.6484375 39.6728515625 39.697265625 39.7216796875 39.74609375 39.7705078125 39.794921875 39.8193359375 39.84375 39.8681640625 39.892578125 39.9169921875 39.94140625 39.9658203125 39.990234375 40.0146484375 40.0390625 40.0634765625 40.087890625 40.1123046875 40.13671875 40.1611328125 40.185546875 40.2099609375 40.234375 40.2587890625 40.283203125 40.3076171875 40.33203125 40.3564453125 40.380859375 40.4052734375 40.4296875 40.4541015625 40.478515625 40.5029296875 40.52734375 40.5517578125 40.576171875 40.6005859375 40.625 40.6494140625 40.673828125 40.6982421875 40.72265625 40.7470703125 40.771484375 40.7958984375 40.8203125 40.8447265625 40.869140625 40.8935546875 40.91796875 40.9423828125 40.966796875 40.9912109375 41.015625 41.0400390625 41.064453125 41.0888671875 41.11328125 41.1376953125 41.162109375 41.1865234375 41.2109375 41.2353515625 41.259765625 41.2841796875 41.30859375 41.3330078125 41.357421875 41.3818359375 41.40625 41.4306640625 41.455078125 41.4794921875 41.50390625 41.5283203125 41.552734375 41.5771484375 41.6015625 41.6259765625 41.650390625 41.6748046875 41.69921875 41.7236328125 41.748046875 41.7724609375 41.796875 41.8212890625 41.845703125 41.8701171875 41.89453125 41.9189453125 41.943359375 41.9677734375 41.9921875 42.0166015625 42.041015625 42.0654296875 42.08984375 42.1142578125 42.138671875 42.1630859375 42.1875 42.2119140625 42.236328125 42.2607421875 42.28515625 42.3095703125 42.333984375 42.3583984375 42.3828125 42.4072265625 42.431640625 42.4560546875 42.48046875 42.5048828125 42.529296875 42.5537109375 42.578125 42.6025390625 42.626953125 42.6513671875 42.67578125 42.7001953125 42.724609375 42.7490234375 42.7734375 42.7978515625 42.822265625 42.8466796875 42.87109375 42.8955078125 42.919921875 42.9443359375 42.96875 42.9931640625 43.017578125 43.0419921875 43.06640625 43.0908203125 43.115234375 43.1396484375 43.1640625 43.1884765625 43.212890625 43.2373046875 43.26171875 43.2861328125 43.310546875 43.3349609375 43.359375 43.3837890625 43.408203125 43.4326171875 43.45703125 43.4814453125 43.505859375 43.5302734375 43.5546875 43.5791015625 43.603515625 43.6279296875 43.65234375 43.6767578125 43.701171875 43.7255859375 43.75 43.7744140625 43.798828125 43.8232421875 43.84765625 43.8720703125 43.896484375 43.9208984375 43.9453125 43.9697265625 43.994140625 44.0185546875 44.04296875 44.0673828125 44.091796875 44.1162109375 44.140625 44.1650390625 44.189453125 44.2138671875 44.23828125 44.2626953125 44.287109375 44.3115234375 44.3359375 44.3603515625 44.384765625 44.4091796875 44.43359375 44.4580078125 44.482421875 44.5068359375 44.53125 44.5556640625 44.580078125 44.6044921875 44.62890625 44.6533203125 44.677734375 44.7021484375 44.7265625 44.7509765625 44.775390625 44.7998046875 44.82421875 44.8486328125 44.873046875 44.8974609375 44.921875 44.9462890625 44.970703125 44.9951171875 45.01953125 45.0439453125 45.068359375 45.0927734375 45.1171875 45.1416015625 45.166015625 45.1904296875 45.21484375 45.2392578125 45.263671875 45.2880859375 45.3125 45.3369140625 45.361328125 45.3857421875 45.41015625 45.4345703125 45.458984375 45.4833984375 45.5078125 45.5322265625 45.556640625 45.5810546875 45.60546875 45.6298828125 45.654296875 45.6787109375 45.703125 45.7275390625 45.751953125 45.7763671875 45.80078125 45.8251953125 45.849609375 45.8740234375 45.8984375 45.9228515625 45.947265625 45.9716796875 45.99609375 46.0205078125 46.044921875 46.0693359375 46.09375 46.1181640625 46.142578125 46.1669921875 46.19140625 46.2158203125 46.240234375 46.2646484375 46.2890625 46.3134765625 46.337890625 46.3623046875 46.38671875 46.4111328125 46.435546875 46.4599609375 46.484375 46.5087890625 46.533203125 46.5576171875 46.58203125 46.6064453125 46.630859375 46.6552734375 46.6796875 46.7041015625 46.728515625 46.7529296875 46.77734375 46.8017578125 46.826171875 46.8505859375 46.875 46.8994140625 46.923828125 46.9482421875 46.97265625 46.9970703125 47.021484375 47.0458984375 47.0703125 47.0947265625 47.119140625 47.1435546875 47.16796875 47.1923828125 47.216796875 47.2412109375 47.265625 47.2900390625 47.314453125 47.3388671875 47.36328125 47.3876953125 47.412109375 47.4365234375 47.4609375 47.4853515625 47.509765625 47.5341796875 47.55859375 47.5830078125 47.607421875 47.6318359375 47.65625 47.6806640625 47.705078125 47.7294921875 47.75390625 47.7783203125 47.802734375 47.8271484375 47.8515625 47.8759765625 47.900390625 47.9248046875 47.94921875 47.9736328125 47.998046875 48.0224609375 48.046875 48.0712890625 48.095703125 48.1201171875 48.14453125 48.1689453125 48.193359375 48.2177734375 48.2421875 48.2666015625 48.291015625 48.3154296875 48.33984375 48.3642578125 48.388671875 48.4130859375 48.4375 48.4619140625 48.486328125 48.5107421875 48.53515625 48.5595703125 48.583984375 48.6083984375 48.6328125 48.6572265625 48.681640625 48.7060546875 48.73046875 48.7548828125 48.779296875 48.8037109375 48.828125 48.8525390625 48.876953125 48.9013671875 48.92578125 48.9501953125 48.974609375 48.9990234375 49.0234375 49.0478515625 49.072265625 49.0966796875 49.12109375 49.1455078125 49.169921875 49.1943359375 49.21875 49.2431640625 49.267578125 49.2919921875 49.31640625 49.3408203125 49.365234375 49.3896484375 49.4140625 49.4384765625 49.462890625 49.4873046875 49.51171875 49.5361328125 49.560546875 49.5849609375 49.609375 49.6337890625 49.658203125 49.6826171875 49.70703125 49.7314453125 49.755859375 49.7802734375 49.8046875 49.8291015625 49.853515625 49.8779296875 49.90234375 49.9267578125 49.951171875 49.9755859375 );

geometry        1024 ( 0 1 2 3 4 5 6 7 8 9 10 11 12 13 14 15 16 17 18 19 20 21 22 23 24 25 26 27 28 29 30 31 32 33 34 35 36 37 38 39 40 41 42 43 44 45 46 47 48 49 50 51 52 53 54 55 56 57 58 59 60 61 62 63 64 65 66 67 68 69 70 71 72 73 74 75 76 77 78 79 80 81 82 83 84 85 86 87 88 89 90 91 92 93 94 95 96 97 98 99 100 101 102 103 104 105 106 107 108 109 110 111 112 113 114 115 116 117 118 119 120 121 122 123 124 125 126 127 128 129 130 131 132 133 134 135 136 137 138 139 140 141 142 143 144 145 146 147 148 149 150 151 152 153 154 155 156 157 158 159 160 161 162 163 164 165 166 167 168 169 170 171 172 173 174 175 176 177 178 179 180 181 182 183 184 185 186 187 188 189 190 191 192 193 194 195 196 197 198 199 200 201 202 203 204 205 206 207 208 209 210 211 212 213 214 215 216 217 218 219 220 221 222 223 224 225 226 227 228 229 230 231 232 233 234 235 236 237 238 239 240 241 242 243 244 245 246 247 248 249 250 251 252 253 254 255 256 257 258 259 260 261 262 263 264 265 266 267 268 269 270 271 272 273 274 275 276 277 278 279 280 281 282 283 284 285 286 287 288 289 290 291 292 293 294 295 296 297 298 299 300 301 302 303 304 305 306 307 308 309 310 311 312 313 314 315 316 317 318 319 320 321 322 323 324 325 326 327 328 329 330 331 332 333 334 335 336 337 338 339 340 341 342 343 344 345 346 347 348 349 350 351 352 353 354 355 356 357 358 359 360 361 362 363 364 365 366 367 368 369 370 371 372 373 374 375 376 377 378 379 380 381 382 383 384 385 386 387 388 389 390 391 392 393 394 395 396 397 398 399 400 401 402 403 404 405 406 407 408 409 410 411 412 413 414 415 416 417 418 419 420 421 422 423 424 425 426 427 428 429 430 431 432 433 434 435 436 437 438 439 440 441 442 443 444 445 446 447 448 449 450 451 452 453 454 455 456 457 458 459 460 461 462 463 464 465 466 467 468 469 470 471 472 473 474 475 476 477 478 479 480 481 482 483 484 485 486 487 488 489 490 491 492 493 494 495 496 497 498 499 500 501 502 503 504 505 506 507 508 509 510 511 512 513 514 515 516 517 518 519 520 521 522 523 524 525 526 527 528 529 530 531 532 533 534 535 536 537 538 539 540 541 542 543 544 545 546 547 548 549 550 551 552 553 554 555 556 557 558 559 560 561 562 563 564 565 566 567 568 569 570 571 572 573 574 575 576 577 578 579 580 581 582 583 584 585 586 587 588 589 590 591 592 593 594 595 596 597 598 599 600 601 602 603 604 605 606 607 608 609 610 611 612 613 614 615 616 617 618 619 620 621 622 623 624 625 626 627 628 629 630 631 632 633 634 635 636 637 638 639 640 641 642 643 644 645 646 647 648 649 650 651 652 653 654 655 656 657 658 659 660 661 662 663 664 665 666 667 668 669 670 671 672 673 674 675 676 677 678 679 680 681 682 683 684 685 686 687 688 689 690 691 692 693 694 695 696 697 698 699 700 701 702 703 704 705 706 707 708 709 710 711 712 713 714 715 716 717 718 719 720 721 722 723 724 725 726 727 728 729 730 731 732 733 734 735 736 737 738 739 740 741 742 743 744 745 746 747 748 749 750 751 752 753 754 755 756 757 758 759 760 761 762 763 764 765 766 767 768 769 770 771 772 773 774 775 776 777 778 779 780 781 782 783 784 785 786 787 788 789 790 791 792 793 794 795 796 797 798 799 800 801 802 803 804 805 806 807 808 809 810 811 812 813 814 815 816 817 818 819 820 821 822 823 824 825 826 827 828 829 830 831 832 833 834 835 836 837 838 839 840 841 842 843 844 845 846 847 848 849 850 851 852 853 854 855 856 857 858 859 860 861 862 863 864 865 866 867 868 869 870 871 872 873 874 875 876 877 878 879 880 881 882 883 884 885 886 887 888 889 890 891 892 893 894 895 896 897 898 899 900 901 902 903 904 905 906 907 908 909 910 911 912 913 914 915 916 917 918 919 920 921 922 923 924 925 926 927 928 929 930 931 932 933 934 935 936 937 938 939 940 941 942 943 944 945 946 947 948 949 950 951 952 953 954 955 956 957 958 959 960 961 962 963 964 965 966 967 968 969 970 971 972 973 974 975 976 977 978 979 980 981 982 983 984 985 986 987 988 989 990 991 992 993 994 995 996 997 998 999 1000 1001 1002 1003 1004 1005 1006 1007 1008 1009 1010 1011 1012 1013 1014 1015 1016 1017 1018 1019 1020 1021 1022 1023 );

fields
{
    Prmsf
    {
        type            "scalar";
    }
    PSDf
    {
        type            "scalar";
    }
    PSD
    {
        type            "scalar";
    }
    SPL
    {
        type            "scalar";
    }
}

// End
