FORMAT
type: ensight gold

GEOMETRY
model:  1   data/********/geometry

VARIABLE
scalar per element: 1  Prmsf           data/********/Prmsf
scalar per element: 1  PSDf            data/********/PSDf
scalar per element: 1  PSD             data/********/PSD
scalar per element: 1  SPL             data/********/SPL

TIME
time set:               1
number of steps:        1024
filename start number:  0
filename increment:     1
time values:
  2.50000e+01  2.50244e+01  2.50488e+01  2.50732e+01  2.50977e+01  2.51221e+01
  2.51465e+01  2.51709e+01  2.51953e+01  2.52197e+01  2.52441e+01  2.52686e+01
  2.52930e+01  2.53174e+01  2.53418e+01  2.53662e+01  2.53906e+01  2.54150e+01
  2.54395e+01  2.54639e+01  2.54883e+01  2.55127e+01  2.55371e+01  2.55615e+01
  2.55859e+01  2.56104e+01  2.56348e+01  2.56592e+01  2.56836e+01  2.57080e+01
  2.57324e+01  2.57568e+01  2.57812e+01  2.58057e+01  2.58301e+01  2.58545e+01
  2.58789e+01  2.59033e+01  2.59277e+01  2.59521e+01  2.59766e+01  2.60010e+01
  2.60254e+01  2.60498e+01  2.60742e+01  2.60986e+01  2.61230e+01  2.61475e+01
  2.61719e+01  2.61963e+01  2.62207e+01  2.62451e+01  2.62695e+01  2.62939e+01
  2.63184e+01  2.63428e+01  2.63672e+01  2.63916e+01  2.64160e+01  2.64404e+01
  2.64648e+01  2.64893e+01  2.65137e+01  2.65381e+01  2.65625e+01  2.65869e+01
  2.66113e+01  2.66357e+01  2.66602e+01  2.66846e+01  2.67090e+01  2.67334e+01
  2.67578e+01  2.67822e+01  2.68066e+01  2.68311e+01  2.68555e+01  2.68799e+01
  2.69043e+01  2.69287e+01  2.69531e+01  2.69775e+01  2.70020e+01  2.70264e+01
  2.70508e+01  2.70752e+01  2.70996e+01  2.71240e+01  2.71484e+01  2.71729e+01
  2.71973e+01  2.72217e+01  2.72461e+01  2.72705e+01  2.72949e+01  2.73193e+01
  2.73438e+01  2.73682e+01  2.73926e+01  2.74170e+01  2.74414e+01  2.74658e+01
  2.74902e+01  2.75146e+01  2.75391e+01  2.75635e+01  2.75879e+01  2.76123e+01
  2.76367e+01  2.76611e+01  2.76855e+01  2.77100e+01  2.77344e+01  2.77588e+01
  2.77832e+01  2.78076e+01  2.78320e+01  2.78564e+01  2.78809e+01  2.79053e+01
  2.79297e+01  2.79541e+01  2.79785e+01  2.80029e+01  2.80273e+01  2.80518e+01
  2.80762e+01  2.81006e+01  2.81250e+01  2.81494e+01  2.81738e+01  2.81982e+01
  2.82227e+01  2.82471e+01  2.82715e+01  2.82959e+01  2.83203e+01  2.83447e+01
  2.83691e+01  2.83936e+01  2.84180e+01  2.84424e+01  2.84668e+01  2.84912e+01
  2.85156e+01  2.85400e+01  2.85645e+01  2.85889e+01  2.86133e+01  2.86377e+01
  2.86621e+01  2.86865e+01  2.87109e+01  2.87354e+01  2.87598e+01  2.87842e+01
  2.88086e+01  2.88330e+01  2.88574e+01  2.88818e+01  2.89062e+01  2.89307e+01
  2.89551e+01  2.89795e+01  2.90039e+01  2.90283e+01  2.90527e+01  2.90771e+01
  2.91016e+01  2.91260e+01  2.91504e+01  2.91748e+01  2.91992e+01  2.92236e+01
  2.92480e+01  2.92725e+01  2.92969e+01  2.93213e+01  2.93457e+01  2.93701e+01
  2.93945e+01  2.94189e+01  2.94434e+01  2.94678e+01  2.94922e+01  2.95166e+01
  2.95410e+01  2.95654e+01  2.95898e+01  2.96143e+01  2.96387e+01  2.96631e+01
  2.96875e+01  2.97119e+01  2.97363e+01  2.97607e+01  2.97852e+01  2.98096e+01
  2.98340e+01  2.98584e+01  2.98828e+01  2.99072e+01  2.99316e+01  2.99561e+01
  2.99805e+01  3.00049e+01  3.00293e+01  3.00537e+01  3.00781e+01  3.01025e+01
  3.01270e+01  3.01514e+01  3.01758e+01  3.02002e+01  3.02246e+01  3.02490e+01
  3.02734e+01  3.02979e+01  3.03223e+01  3.03467e+01  3.03711e+01  3.03955e+01
  3.04199e+01  3.04443e+01  3.04688e+01  3.04932e+01  3.05176e+01  3.05420e+01
  3.05664e+01  3.05908e+01  3.06152e+01  3.06396e+01  3.06641e+01  3.06885e+01
  3.07129e+01  3.07373e+01  3.07617e+01  3.07861e+01  3.08105e+01  3.08350e+01
  3.08594e+01  3.08838e+01  3.09082e+01  3.09326e+01  3.09570e+01  3.09814e+01
  3.10059e+01  3.10303e+01  3.10547e+01  3.10791e+01  3.11035e+01  3.11279e+01
  3.11523e+01  3.11768e+01  3.12012e+01  3.12256e+01  3.12500e+01  3.12744e+01
  3.12988e+01  3.13232e+01  3.13477e+01  3.13721e+01  3.13965e+01  3.14209e+01
  3.14453e+01  3.14697e+01  3.14941e+01  3.15186e+01  3.15430e+01  3.15674e+01
  3.15918e+01  3.16162e+01  3.16406e+01  3.16650e+01  3.16895e+01  3.17139e+01
  3.17383e+01  3.17627e+01  3.17871e+01  3.18115e+01  3.18359e+01  3.18604e+01
  3.18848e+01  3.19092e+01  3.19336e+01  3.19580e+01  3.19824e+01  3.20068e+01
  3.20312e+01  3.20557e+01  3.20801e+01  3.21045e+01  3.21289e+01  3.21533e+01
  3.21777e+01  3.22021e+01  3.22266e+01  3.22510e+01  3.22754e+01  3.22998e+01
  3.23242e+01  3.23486e+01  3.23730e+01  3.23975e+01  3.24219e+01  3.24463e+01
  3.24707e+01  3.24951e+01  3.25195e+01  3.25439e+01  3.25684e+01  3.25928e+01
  3.26172e+01  3.26416e+01  3.26660e+01  3.26904e+01  3.27148e+01  3.27393e+01
  3.27637e+01  3.27881e+01  3.28125e+01  3.28369e+01  3.28613e+01  3.28857e+01
  3.29102e+01  3.29346e+01  3.29590e+01  3.29834e+01  3.30078e+01  3.30322e+01
  3.30566e+01  3.30811e+01  3.31055e+01  3.31299e+01  3.31543e+01  3.31787e+01
  3.32031e+01  3.32275e+01  3.32520e+01  3.32764e+01  3.33008e+01  3.33252e+01
  3.33496e+01  3.33740e+01  3.33984e+01  3.34229e+01  3.34473e+01  3.34717e+01
  3.34961e+01  3.35205e+01  3.35449e+01  3.35693e+01  3.35938e+01  3.36182e+01
  3.36426e+01  3.36670e+01  3.36914e+01  3.37158e+01  3.37402e+01  3.37646e+01
  3.37891e+01  3.38135e+01  3.38379e+01  3.38623e+01  3.38867e+01  3.39111e+01
  3.39355e+01  3.39600e+01  3.39844e+01  3.40088e+01  3.40332e+01  3.40576e+01
  3.40820e+01  3.41064e+01  3.41309e+01  3.41553e+01  3.41797e+01  3.42041e+01
  3.42285e+01  3.42529e+01  3.42773e+01  3.43018e+01  3.43262e+01  3.43506e+01
  3.43750e+01  3.43994e+01  3.44238e+01  3.44482e+01  3.44727e+01  3.44971e+01
  3.45215e+01  3.45459e+01  3.45703e+01  3.45947e+01  3.46191e+01  3.46436e+01
  3.46680e+01  3.46924e+01  3.47168e+01  3.47412e+01  3.47656e+01  3.47900e+01
  3.48145e+01  3.48389e+01  3.48633e+01  3.48877e+01  3.49121e+01  3.49365e+01
  3.49609e+01  3.49854e+01  3.50098e+01  3.50342e+01  3.50586e+01  3.50830e+01
  3.51074e+01  3.51318e+01  3.51562e+01  3.51807e+01  3.52051e+01  3.52295e+01
  3.52539e+01  3.52783e+01  3.53027e+01  3.53271e+01  3.53516e+01  3.53760e+01
  3.54004e+01  3.54248e+01  3.54492e+01  3.54736e+01  3.54980e+01  3.55225e+01
  3.55469e+01  3.55713e+01  3.55957e+01  3.56201e+01  3.56445e+01  3.56689e+01
  3.56934e+01  3.57178e+01  3.57422e+01  3.57666e+01  3.57910e+01  3.58154e+01
  3.58398e+01  3.58643e+01  3.58887e+01  3.59131e+01  3.59375e+01  3.59619e+01
  3.59863e+01  3.60107e+01  3.60352e+01  3.60596e+01  3.60840e+01  3.61084e+01
  3.61328e+01  3.61572e+01  3.61816e+01  3.62061e+01  3.62305e+01  3.62549e+01
  3.62793e+01  3.63037e+01  3.63281e+01  3.63525e+01  3.63770e+01  3.64014e+01
  3.64258e+01  3.64502e+01  3.64746e+01  3.64990e+01  3.65234e+01  3.65479e+01
  3.65723e+01  3.65967e+01  3.66211e+01  3.66455e+01  3.66699e+01  3.66943e+01
  3.67188e+01  3.67432e+01  3.67676e+01  3.67920e+01  3.68164e+01  3.68408e+01
  3.68652e+01  3.68896e+01  3.69141e+01  3.69385e+01  3.69629e+01  3.69873e+01
  3.70117e+01  3.70361e+01  3.70605e+01  3.70850e+01  3.71094e+01  3.71338e+01
  3.71582e+01  3.71826e+01  3.72070e+01  3.72314e+01  3.72559e+01  3.72803e+01
  3.73047e+01  3.73291e+01  3.73535e+01  3.73779e+01  3.74023e+01  3.74268e+01
  3.74512e+01  3.74756e+01  3.75000e+01  3.75244e+01  3.75488e+01  3.75732e+01
  3.75977e+01  3.76221e+01  3.76465e+01  3.76709e+01  3.76953e+01  3.77197e+01
  3.77441e+01  3.77686e+01  3.77930e+01  3.78174e+01  3.78418e+01  3.78662e+01
  3.78906e+01  3.79150e+01  3.79395e+01  3.79639e+01  3.79883e+01  3.80127e+01
  3.80371e+01  3.80615e+01  3.80859e+01  3.81104e+01  3.81348e+01  3.81592e+01
  3.81836e+01  3.82080e+01  3.82324e+01  3.82568e+01  3.82812e+01  3.83057e+01
  3.83301e+01  3.83545e+01  3.83789e+01  3.84033e+01  3.84277e+01  3.84521e+01
  3.84766e+01  3.85010e+01  3.85254e+01  3.85498e+01  3.85742e+01  3.85986e+01
  3.86230e+01  3.86475e+01  3.86719e+01  3.86963e+01  3.87207e+01  3.87451e+01
  3.87695e+01  3.87939e+01  3.88184e+01  3.88428e+01  3.88672e+01  3.88916e+01
  3.89160e+01  3.89404e+01  3.89648e+01  3.89893e+01  3.90137e+01  3.90381e+01
  3.90625e+01  3.90869e+01  3.91113e+01  3.91357e+01  3.91602e+01  3.91846e+01
  3.92090e+01  3.92334e+01  3.92578e+01  3.92822e+01  3.93066e+01  3.93311e+01
  3.93555e+01  3.93799e+01  3.94043e+01  3.94287e+01  3.94531e+01  3.94775e+01
  3.95020e+01  3.95264e+01  3.95508e+01  3.95752e+01  3.95996e+01  3.96240e+01
  3.96484e+01  3.96729e+01  3.96973e+01  3.97217e+01  3.97461e+01  3.97705e+01
  3.97949e+01  3.98193e+01  3.98438e+01  3.98682e+01  3.98926e+01  3.99170e+01
  3.99414e+01  3.99658e+01  3.99902e+01  4.00146e+01  4.00391e+01  4.00635e+01
  4.00879e+01  4.01123e+01  4.01367e+01  4.01611e+01  4.01855e+01  4.02100e+01
  4.02344e+01  4.02588e+01  4.02832e+01  4.03076e+01  4.03320e+01  4.03564e+01
  4.03809e+01  4.04053e+01  4.04297e+01  4.04541e+01  4.04785e+01  4.05029e+01
  4.05273e+01  4.05518e+01  4.05762e+01  4.06006e+01  4.06250e+01  4.06494e+01
  4.06738e+01  4.06982e+01  4.07227e+01  4.07471e+01  4.07715e+01  4.07959e+01
  4.08203e+01  4.08447e+01  4.08691e+01  4.08936e+01  4.09180e+01  4.09424e+01
  4.09668e+01  4.09912e+01  4.10156e+01  4.10400e+01  4.10645e+01  4.10889e+01
  4.11133e+01  4.11377e+01  4.11621e+01  4.11865e+01  4.12109e+01  4.12354e+01
  4.12598e+01  4.12842e+01  4.13086e+01  4.13330e+01  4.13574e+01  4.13818e+01
  4.14062e+01  4.14307e+01  4.14551e+01  4.14795e+01  4.15039e+01  4.15283e+01
  4.15527e+01  4.15771e+01  4.16016e+01  4.16260e+01  4.16504e+01  4.16748e+01
  4.16992e+01  4.17236e+01  4.17480e+01  4.17725e+01  4.17969e+01  4.18213e+01
  4.18457e+01  4.18701e+01  4.18945e+01  4.19189e+01  4.19434e+01  4.19678e+01
  4.19922e+01  4.20166e+01  4.20410e+01  4.20654e+01  4.20898e+01  4.21143e+01
  4.21387e+01  4.21631e+01  4.21875e+01  4.22119e+01  4.22363e+01  4.22607e+01
  4.22852e+01  4.23096e+01  4.23340e+01  4.23584e+01  4.23828e+01  4.24072e+01
  4.24316e+01  4.24561e+01  4.24805e+01  4.25049e+01  4.25293e+01  4.25537e+01
  4.25781e+01  4.26025e+01  4.26270e+01  4.26514e+01  4.26758e+01  4.27002e+01
  4.27246e+01  4.27490e+01  4.27734e+01  4.27979e+01  4.28223e+01  4.28467e+01
  4.28711e+01  4.28955e+01  4.29199e+01  4.29443e+01  4.29688e+01  4.29932e+01
  4.30176e+01  4.30420e+01  4.30664e+01  4.30908e+01  4.31152e+01  4.31396e+01
  4.31641e+01  4.31885e+01  4.32129e+01  4.32373e+01  4.32617e+01  4.32861e+01
  4.33105e+01  4.33350e+01  4.33594e+01  4.33838e+01  4.34082e+01  4.34326e+01
  4.34570e+01  4.34814e+01  4.35059e+01  4.35303e+01  4.35547e+01  4.35791e+01
  4.36035e+01  4.36279e+01  4.36523e+01  4.36768e+01  4.37012e+01  4.37256e+01
  4.37500e+01  4.37744e+01  4.37988e+01  4.38232e+01  4.38477e+01  4.38721e+01
  4.38965e+01  4.39209e+01  4.39453e+01  4.39697e+01  4.39941e+01  4.40186e+01
  4.40430e+01  4.40674e+01  4.40918e+01  4.41162e+01  4.41406e+01  4.41650e+01
  4.41895e+01  4.42139e+01  4.42383e+01  4.42627e+01  4.42871e+01  4.43115e+01
  4.43359e+01  4.43604e+01  4.43848e+01  4.44092e+01  4.44336e+01  4.44580e+01
  4.44824e+01  4.45068e+01  4.45312e+01  4.45557e+01  4.45801e+01  4.46045e+01
  4.46289e+01  4.46533e+01  4.46777e+01  4.47021e+01  4.47266e+01  4.47510e+01
  4.47754e+01  4.47998e+01  4.48242e+01  4.48486e+01  4.48730e+01  4.48975e+01
  4.49219e+01  4.49463e+01  4.49707e+01  4.49951e+01  4.50195e+01  4.50439e+01
  4.50684e+01  4.50928e+01  4.51172e+01  4.51416e+01  4.51660e+01  4.51904e+01
  4.52148e+01  4.52393e+01  4.52637e+01  4.52881e+01  4.53125e+01  4.53369e+01
  4.53613e+01  4.53857e+01  4.54102e+01  4.54346e+01  4.54590e+01  4.54834e+01
  4.55078e+01  4.55322e+01  4.55566e+01  4.55811e+01  4.56055e+01  4.56299e+01
  4.56543e+01  4.56787e+01  4.57031e+01  4.57275e+01  4.57520e+01  4.57764e+01
  4.58008e+01  4.58252e+01  4.58496e+01  4.58740e+01  4.58984e+01  4.59229e+01
  4.59473e+01  4.59717e+01  4.59961e+01  4.60205e+01  4.60449e+01  4.60693e+01
  4.60938e+01  4.61182e+01  4.61426e+01  4.61670e+01  4.61914e+01  4.62158e+01
  4.62402e+01  4.62646e+01  4.62891e+01  4.63135e+01  4.63379e+01  4.63623e+01
  4.63867e+01  4.64111e+01  4.64355e+01  4.64600e+01  4.64844e+01  4.65088e+01
  4.65332e+01  4.65576e+01  4.65820e+01  4.66064e+01  4.66309e+01  4.66553e+01
  4.66797e+01  4.67041e+01  4.67285e+01  4.67529e+01  4.67773e+01  4.68018e+01
  4.68262e+01  4.68506e+01  4.68750e+01  4.68994e+01  4.69238e+01  4.69482e+01
  4.69727e+01  4.69971e+01  4.70215e+01  4.70459e+01  4.70703e+01  4.70947e+01
  4.71191e+01  4.71436e+01  4.71680e+01  4.71924e+01  4.72168e+01  4.72412e+01
  4.72656e+01  4.72900e+01  4.73145e+01  4.73389e+01  4.73633e+01  4.73877e+01
  4.74121e+01  4.74365e+01  4.74609e+01  4.74854e+01  4.75098e+01  4.75342e+01
  4.75586e+01  4.75830e+01  4.76074e+01  4.76318e+01  4.76562e+01  4.76807e+01
  4.77051e+01  4.77295e+01  4.77539e+01  4.77783e+01  4.78027e+01  4.78271e+01
  4.78516e+01  4.78760e+01  4.79004e+01  4.79248e+01  4.79492e+01  4.79736e+01
  4.79980e+01  4.80225e+01  4.80469e+01  4.80713e+01  4.80957e+01  4.81201e+01
  4.81445e+01  4.81689e+01  4.81934e+01  4.82178e+01  4.82422e+01  4.82666e+01
  4.82910e+01  4.83154e+01  4.83398e+01  4.83643e+01  4.83887e+01  4.84131e+01
  4.84375e+01  4.84619e+01  4.84863e+01  4.85107e+01  4.85352e+01  4.85596e+01
  4.85840e+01  4.86084e+01  4.86328e+01  4.86572e+01  4.86816e+01  4.87061e+01
  4.87305e+01  4.87549e+01  4.87793e+01  4.88037e+01  4.88281e+01  4.88525e+01
  4.88770e+01  4.89014e+01  4.89258e+01  4.89502e+01  4.89746e+01  4.89990e+01
  4.90234e+01  4.90479e+01  4.90723e+01  4.90967e+01  4.91211e+01  4.91455e+01
  4.91699e+01  4.91943e+01  4.92188e+01  4.92432e+01  4.92676e+01  4.92920e+01
  4.93164e+01  4.93408e+01  4.93652e+01  4.93896e+01  4.94141e+01  4.94385e+01
  4.94629e+01  4.94873e+01  4.95117e+01  4.95361e+01  4.95605e+01  4.95850e+01
  4.96094e+01  4.96338e+01  4.96582e+01  4.96826e+01  4.97070e+01  4.97314e+01
  4.97559e+01  4.97803e+01  4.98047e+01  4.98291e+01  4.98535e+01  4.98779e+01
  4.99023e+01  4.99268e+01  4.99512e+01  4.99756e+01

# end
