# vtk DataFile Version 2.0
gauge_2
ASCII
DATASET POLYDATA
POINTS 104 double
0.2 0.0314993 0.005
0.2 0.0329993 0.005
0.2 0.0344993 0.005
0.2 0.0359992 0.005
0.2 0.0374992 0.005
0.2 0.0389992 0.005
0.2 0.0404991 0.005
0.2 0.0419991 0.005
0.2 0.0434991 0.005
0.2 0.044999 0.005
0.2 0.046499 0.005
0.2 0.047999 0.005
0.2 0.0511894 0.005
0.2 0.0543799 0.005
0.2 0.0575704 0.005
0.2 0.0607609 0.005
0.2 0.0639514 0.005
0.2 0.0671419 0.005
0.2 0.0703323 0.005
0.2 0.0735228 0.005
0.2 0.0767133 0.005
0.2 0.0799038 0.005
0.2 0.0830943 0.005
0.2 0.0862847 0.005
0.2 0.0894752 0.005
0.2 0.0926657 0.005
0.2 0.0958562 0.005
0.2 0.0990467 0.005
0.2 0.102237 0.005
0.2 0.105428 0.005
0.2 0.111809 0.005
0.2 0.124571 0.005
0.2 0.137332 0.005
0.2 0.150094 0.005
0.2 0.162856 0.005
0.2 0.175618 0.005
0.2 0.18838 0.005
0.2 0.201142 0.005
0.2 0.213904 0.005
0.2 0.226666 0.005
0.2 0.239428 0.005
0.2 0.25219 0.005
0.2 0.264952 0.005
0.2 0.277714 0.005
0.2 0.290476 0.005
0.2 0.303238 0.005
0.2 0.315999 0.005
0.2 0.328761 0.005
0.2 0.341523 0.005
0.2 0.354285 0.005
0.2 0.367047 0.005
0.2 0.373428 0.005
0.2 0.376619 0.005
0.2 0.379809 0.005
0.2 0.383 0.005
0.2 0.38619 0.005
0.2 0.389381 0.005
0.2 0.392571 0.005
0.2 0.395762 0.005
0.2 0.398952 0.005
0.2 0.402142 0.005
0.2 0.405333 0.005
0.2 0.408523 0.005
0.2 0.411714 0.005
0.2 0.414904 0.005
0.2 0.418095 0.005
0.2 0.421285 0.005
0.2 0.424476 0.005
0.2 0.427666 0.005
0.2 0.430857 0.005
0.2 0.437238 0.005
0.2 0.443619 0.005
0.2 0.45 0.005
0.2 0.45319 0.005
0.2 0.456381 0.005
0.2 0.459571 0.005
0.2 0.462762 0.005
0.2 0.465952 0.005
0.2 0.469143 0.005
0.2 0.472333 0.005
0.2 0.475524 0.005
0.2 0.478714 0.005
0.2 0.481905 0.005
0.2 0.485095 0.005
0.2 0.488286 0.005
0.2 0.491476 0.005
0.2 0.494666 0.005
0.2 0.497857 0.005
0.2 0.501047 0.005
0.2 0.504238 0.005
0.2 0.507428 0.005
0.2 0.510619 0.005
0.2 0.513809 0.005
0.2 0.517 0.005
0.2 0.52019 0.005
0.2 0.523381 0.005
0.2 0.526571 0.005
0.2 0.529762 0.005
0.2 0.532952 0.005
0.2 0.536143 0.005
0.2 0.539333 0.005
0.2 0.542524 0.005
0.2 0.545714 0.005
0.2 0.552095 0.005
POINT_DATA 104
 FIELD attributes 1
alpha.water 1 104 float
1 1 1 1 1 1 1 1 1 1 1 1 1 1 1 1 1 0.999998 0.999987 0.999948 1 0.999801 0.999484 0.982886 0.999407 0.596553 0.19405 3.99633e-12 8.45493e-11 1.64592e-10 4.35187e-10 2.62929e-09 3.61886e-09 1.93246e-09 4.24607e-10 1.73167e-10 3.62989e-13 2.17985e-13 1.97184e-15 8.71255e-17 7.67122e-19 -2.39985e-20 -2.08018e-20 2.66072e-19 2.64595e-17 1.80869e-15 3.42043e-14 5.23083e-13 2.4053e-11 1.068e-09 1.65322e-06 5.09586e-05 0.000353037 0.000928478 0.000362908 0.000600531 0.000338057 0.00084925 0.0043956 0.00267147 0.00219579 0.00210263 0.00691251 0.002589 0.00300695 0.00396506 0.0101679 0.00144684 1.15244e-05 5.42147e-07 2.51145e-08 6.48143e-07 3.81955e-05 8.58996e-05 0.000437077 0.000434818 0.000792447 0.000546486 0.000345328 0.000102795 0.000656278 0.00291203 0.00475013 0.0106394 0.00611402 0.00532434 0.00381551 0.00396697 0.00161507 0.00141732 0.000971148 -0.000866444 0.000260299 0.000385813 0.000618339 0.000416866 0.00201229 0.00314759 0.00280427 -0.00168276 2.59796e-07 -1.79744e-16 -3.02362e-16 -1.33921e-16
