scalar
part
         1
quad4
 3.38220e-07
 3.27554e-07
 3.13053e-07
 2.96455e-07
 2.78973e-07
 2.61417e-07
 2.44309e-07
 2.27963e-07
 2.12554e-07
 1.98161e-07
 1.84802e-07
 1.72455e-07
 1.61074e-07
 1.50603e-07
 1.40976e-07
 1.32129e-07
 1.23996e-07
 1.16516e-07
 1.09633e-07
 1.03291e-07
 4.19993e-07
 3.97402e-07
 3.72249e-07
 3.46422e-07
 3.21092e-07
 2.96937e-07
 2.74316e-07
 2.53381e-07
 2.34154e-07
 2.16585e-07
 2.00577e-07
 1.86017e-07
 1.72782e-07
 1.60751e-07
 1.49807e-07
 1.39844e-07
 1.30762e-07
 1.22473e-07
 1.14894e-07
 1.07956e-07
 5.21160e-07
 4.80952e-07
 4.41030e-07
 4.03040e-07
 3.67789e-07
 3.35582e-07
 3.06433e-07
 2.80199e-07
 2.56663e-07
 2.35575e-07
 2.16683e-07
 1.99748e-07
 1.84548e-07
 1.70882e-07
 1.58573e-07
 1.47463e-07
 1.37414e-07
 1.28304e-07
 1.20027e-07
 1.12491e-07
 6.44560e-07
 5.79233e-07
 5.19495e-07
 4.65971e-07
 4.18557e-07
 3.76807e-07
 3.40141e-07
 3.07956e-07
 2.79680e-07
 2.54792e-07
 2.32835e-07
 2.13409e-07
 1.96173e-07
 1.80833e-07
 1.67137e-07
 1.54872e-07
 1.43855e-07
 1.33931e-07
 1.24964e-07
 1.16841e-07
 7.91777e-07
 6.92088e-07
 6.06794e-07
 5.34168e-07
 4.72374e-07
 4.19704e-07
 3.74671e-07
 3.36014e-07
 3.02684e-07
 2.73813e-07
 2.48689e-07
 2.26723e-07
 2.07433e-07
 1.90419e-07
 1.75349e-07
 1.61949e-07
 1.49987e-07
 1.39270e-07
 1.29636e-07
 1.20948e-07
 9.61747e-07
 8.17396e-07
 7.00708e-07
 6.05664e-07
 5.27607e-07
 4.62965e-07
 4.08989e-07
 3.63562e-07
 3.25040e-07
 2.92140e-07
 2.63854e-07
 2.39381e-07
 2.18083e-07
 1.99446e-07
 1.83053e-07
 1.68565e-07
 1.55703e-07
 1.44237e-07
 1.33974e-07
 1.24754e-07
 1.14903e-06
 9.50253e-07
 7.97297e-07
 6.77431e-07
 5.81981e-07
 5.04886e-07
 4.41821e-07
 3.89643e-07
 3.46025e-07
 3.09223e-07
 2.77908e-07
 2.51055e-07
 2.27866e-07
 2.07710e-07
 1.90087e-07
 1.74593e-07
 1.60903e-07
 1.48748e-07
 1.37909e-07
 1.28204e-07
 1.34219e-06
 1.08241e-06
 8.90765e-07
 7.45421e-07
 6.32651e-07
 5.43453e-07
 4.71723e-07
 4.13208e-07
 3.64869e-07
 3.24487e-07
 2.90417e-07
 2.61415e-07
 2.36527e-07
 2.15015e-07
 1.96297e-07
 1.79911e-07
 1.65486e-07
 1.52723e-07
 1.41376e-07
 1.31244e-07
 1.52300e-06
 1.20238e-06
 9.73768e-07
 8.04849e-07
 6.76434e-07
 5.76502e-07
 4.97196e-07
 4.33199e-07
 3.80808e-07
 3.37375e-07
 3.00969e-07
 2.70150e-07
 2.43832e-07
 2.21179e-07
 2.01540e-07
 1.84405e-07
 1.69365e-07
 1.56091e-07
 1.44318e-07
 1.33828e-07
 1.66784e-06
 1.29673e-06
 1.03833e-06
 8.50798e-07
 7.10192e-07
 6.01968e-07
 5.16842e-07
 4.48648e-07
 3.93160e-07
 3.47395e-07
 3.09201e-07
 2.76991e-07
 2.49574e-07
 2.26043e-07
 2.05695e-07
 1.87980e-07
 1.72462e-07
 1.58792e-07
 1.46687e-07
 1.35916e-07
 1.75277e-06
 1.35288e-06
 1.07740e-06
 8.79077e-07
 7.31324e-07
 6.18176e-07
 5.29546e-07
 4.58791e-07
 4.01387e-07
 3.54160e-07
 3.14831e-07
 2.81727e-07
 2.53596e-07
 2.29488e-07
 2.08668e-07
 1.90563e-07
 1.74721e-07
 1.60778e-07
 1.48443e-07
 1.37476e-07
 1.76215e-06
 1.36290e-06
 1.08660e-06
 8.87126e-07
 7.38249e-07
 6.24106e-07
 5.34627e-07
 4.63159e-07
 4.05158e-07
 3.57432e-07
 3.17684e-07
 2.84227e-07
 2.55797e-07
 2.31434e-07
 2.10397e-07
 1.92105e-07
 1.76102e-07
 1.62019e-07
 1.49562e-07
 1.38489e-07
 1.69604e-06
 1.32643e-06
 1.06556e-06
 8.74634e-07
 7.30722e-07
 6.19568e-07
 5.31939e-07
 4.61639e-07
 4.04385e-07
 3.57140e-07
 3.17703e-07
 2.84445e-07
 2.56140e-07
 2.31853e-07
 2.10858e-07
 1.92587e-07
 1.76588e-07
 1.62500e-07
 1.50032e-07
 1.38943e-07
 1.57020e-06
 1.25082e-06
 1.01799e-06
 8.43597e-07
 7.09872e-07
 6.05227e-07
 5.21884e-07
 4.54480e-07
 3.99226e-07
 3.53388e-07
 3.14956e-07
 2.82426e-07
 2.54656e-07
 2.30764e-07
 2.10064e-07
 1.92015e-07
 1.76185e-07
 1.62225e-07
 1.49854e-07
 1.38840e-07
 1.40866e-06
 1.14828e-06
 9.50497e-07
 7.97776e-07
 6.77933e-07
 5.82460e-07
 5.05340e-07
 4.42258e-07
 3.90066e-07
 3.46438e-07
 3.09626e-07
 2.78300e-07
 2.51435e-07
 2.28234e-07
 2.08065e-07
 1.90428e-07
 1.74920e-07
 1.61215e-07
 1.49045e-07
 1.38193e-07
 1.23468e-06
 1.03202e-06
 8.70781e-07
 7.41807e-07
 6.37788e-07
 5.53110e-07
 4.83516e-07
 4.25783e-07
 3.77462e-07
 3.36678e-07
 3.01988e-07
 2.72265e-07
 2.46626e-07
 2.24371e-07
 2.04941e-07
 1.87886e-07
 1.72841e-07
 1.59505e-07
 1.47633e-07
 1.37022e-07
 1.06546e-06
 9.13169e-07
 7.85984e-07
 6.80305e-07
 5.92462e-07
 5.19197e-07
 4.57784e-07
 4.06005e-07
 3.62080e-07
 3.24586e-07
 2.92388e-07
 2.64575e-07
 2.40415e-07
 2.19317e-07
 2.00801e-07
 1.84473e-07
 1.70010e-07
 1.57145e-07
 1.45657e-07
 1.35359e-07
 9.11023e-07
 7.99518e-07
 7.01727e-07
 6.17224e-07
 5.44720e-07
 4.82660e-07
 4.29516e-07
 3.83904e-07
 3.44630e-07
 3.10680e-07
 2.81209e-07
 2.55516e-07
 2.33020e-07
 2.13238e-07
 1.95771e-07
 1.80286e-07
 1.66506e-07
 1.54197e-07
 1.43165e-07
 1.33243e-07
 7.75640e-07
 6.95558e-07
 6.21830e-07
 5.55557e-07
 4.96824e-07
 4.45184e-07
 3.99961e-07
 3.60409e-07
 3.25803e-07
 2.95478e-07
 2.68845e-07
 2.45389e-07
 2.24670e-07
 2.06310e-07
 1.89990e-07
 1.75435e-07
 1.62414e-07
 1.50730e-07
 1.40213e-07
 1.30719e-07
 6.59896e-07
 6.03238e-07
 5.48491e-07
 4.97307e-07
 4.50446e-07
 4.08108e-07
 3.70169e-07
 3.36333e-07
 3.06231e-07
 2.79470e-07
 2.55672e-07
 2.34487e-07
 2.15595e-07
 1.98716e-07
 1.83601e-07
 1.70035e-07
 1.57827e-07
 1.46816e-07
 1.36860e-07
 1.27835e-07
