scalar
part
         1
quad4
 6.17393e-07
 5.66820e-07
 5.17428e-07
 4.70860e-07
 4.27922e-07
 3.88893e-07
 3.53731e-07
 3.22223e-07
 2.94071e-07
 2.68949e-07
 2.46530e-07
 2.26509e-07
 2.08604e-07
 1.92564e-07
 1.78166e-07
 1.65214e-07
 1.53537e-07
 1.42983e-07
 1.33424e-07
 1.24745e-07
 7.28295e-07
 6.55922e-07
 5.88730e-07
 5.27904e-07
 4.73666e-07
 4.25719e-07
 3.83525e-07
 3.46461e-07
 3.13904e-07
 2.85272e-07
 2.60044e-07
 2.37762e-07
 2.18026e-07
 2.00496e-07
 1.84877e-07
 1.70921e-07
 1.58411e-07
 1.47166e-07
 1.37028e-07
 1.27864e-07
 8.58702e-07
 7.56892e-07
 6.66978e-07
 5.88798e-07
 5.21344e-07
 4.63318e-07
 4.13403e-07
 3.70389e-07
 3.33216e-07
 3.00976e-07
 2.72906e-07
 2.48368e-07
 2.26830e-07
 2.07848e-07
 1.91054e-07
 1.76138e-07
 1.62841e-07
 1.50946e-07
 1.40268e-07
 1.30653e-07
 1.00851e-06
 8.68210e-07
 7.50307e-07
 6.51778e-07
 5.69451e-07
 5.00463e-07
 4.42391e-07
 3.93244e-07
 3.51410e-07
 3.15592e-07
 2.84749e-07
 2.58041e-07
 2.34789e-07
 2.14443e-07
 1.96554e-07
 1.80752e-07
 1.66734e-07
 1.54248e-07
 1.43083e-07
 1.33063e-07
 1.17429e-06
 9.86021e-07
 8.35337e-07
 7.14139e-07
 6.15907e-07
 5.35585e-07
 4.69311e-07
 4.14140e-07
 3.67819e-07
 3.28617e-07
 2.95189e-07
 2.66484e-07
 2.41674e-07
 2.20101e-07
 2.01236e-07
 1.84652e-07
 1.70002e-07
 1.57001e-07
 1.45415e-07
 1.35047e-07
 1.34739e-06
 1.10340e-06
 9.16959e-07
 7.72225e-07
 6.58116e-07
 5.66837e-07
 4.92839e-07
 4.32120e-07
 3.81746e-07
 3.39534e-07
 3.03840e-07
 2.73408e-07
 2.47266e-07
 2.24653e-07
 2.04969e-07
 1.87735e-07
 1.72563e-07
 1.59142e-07
 1.47213e-07
 1.36565e-07
 1.51244e-06
 1.21017e-06
 9.88518e-07
 8.21662e-07
 6.93166e-07
 5.92247e-07
 5.11620e-07
 4.46237e-07
 3.92514e-07
 3.47857e-07
 3.10348e-07
 2.78550e-07
 2.51366e-07
 2.27949e-07
 2.07639e-07
 1.89912e-07
 1.74350e-07
 1.60615e-07
 1.48434e-07
 1.37582e-07
 1.64804e-06
 1.29390e-06
 1.04261e-06
 8.57903e-07
 7.18182e-07
 6.09947e-07
 5.24409e-07
 4.55642e-07
 3.99538e-07
 3.53170e-07
 3.14414e-07
 2.81690e-07
 2.53812e-07
 2.29869e-07
 2.09154e-07
 1.91114e-07
 1.75307e-07
 1.61379e-07
 1.49045e-07
 1.38071e-07
 1.73104e-06
 1.34246e-06
 1.07251e-06
 8.77029e-07
 7.30785e-07
 6.18445e-07
 5.30238e-07
 4.59694e-07
 4.02378e-07
 3.55170e-07
 3.15821e-07
 2.82676e-07
 2.54493e-07
 2.30329e-07
 2.09452e-07
 1.91293e-07
 1.75398e-07
 1.61406e-07
 1.49025e-07
 1.38017e-07
 1.74435e-06
 1.34754e-06
 1.07384e-06
 8.76602e-07
 7.29548e-07
 6.16868e-07
 5.28561e-07
 4.58036e-07
 4.00799e-07
 3.53696e-07
 3.14462e-07
 2.81429e-07
 2.53354e-07
 2.29290e-07
 2.08505e-07
 1.90429e-07
 1.74609e-07
 1.60685e-07
 1.48365e-07
 1.37411e-07
 1.68411e-06
 1.30749e-06
 1.04584e-06
 8.56254e-07
 7.14290e-07
 6.05131e-07
 5.19338e-07
 4.50656e-07
 3.94801e-07
 3.48756e-07
 3.10343e-07
 2.77960e-07
 2.50405e-07
 2.26761e-07
 2.06321e-07
 1.88529e-07
 1.72946e-07
 1.59222e-07
 1.47070e-07
 1.36260e-07
 1.56113e-06
 1.22782e-06
 9.91569e-07
 8.17786e-07
 6.86131e-07
 5.83958e-07
 5.03055e-07
 4.37889e-07
 3.84622e-07
 3.40520e-07
 3.03593e-07
 2.72364e-07
 2.45718e-07
 2.22799e-07
 2.02943e-07
 1.85628e-07
 1.70438e-07
 1.57038e-07
 1.45159e-07
 1.34578e-07
 1.39591e-06
 1.11924e-06
 9.17010e-07
 7.64739e-07
 6.47261e-07
 5.54760e-07
 4.80650e-07
 4.20376e-07
 3.70710e-07
 3.29311e-07
 2.94446e-07
 2.64816e-07
 2.39425e-07
 2.17504e-07
 1.98451e-07
 1.81787e-07
 1.67131e-07
 1.54174e-07
 1.42662e-07
 1.32390e-07
 1.21115e-06
 9.94385e-07
 8.29564e-07
 7.01632e-07
 6.00544e-07
 5.19408e-07
 4.53380e-07
 3.98984e-07
 3.53678e-07
 3.15568e-07
 2.83225e-07
 2.55554e-07
 2.31706e-07
 2.11014e-07
 1.92950e-07
 1.77091e-07
 1.63094e-07
 1.50681e-07
 1.39623e-07
 1.29732e-07
 1.02621e-06
 8.64997e-07
 7.36539e-07
 6.33141e-07
 5.49048e-07
 4.79965e-07
 4.22665e-07
 3.74710e-07
 3.34236e-07
 2.99808e-07
 2.70310e-07
 2.44865e-07
 2.22779e-07
 2.03497e-07
 1.86572e-07
 1.71640e-07
 1.58406e-07
 1.46625e-07
 1.36094e-07
 1.26645e-07
 8.54464e-07
 7.40165e-07
 6.44075e-07
 5.63438e-07
 4.95645e-07
 4.38436e-07
 3.89926e-07
 3.48574e-07
 3.13130e-07
 2.82583e-07
 2.56116e-07
 2.33063e-07
 2.12885e-07
 1.95138e-07
 1.79460e-07
 1.65550e-07
 1.53159e-07
 1.42079e-07
 1.32134e-07
 1.23179e-07
 7.03166e-07
 6.25769e-07
 5.56625e-07
 4.95811e-07
 4.42742e-07
 3.96583e-07
 3.56458e-07
 3.21538e-07
 2.91079e-07
 2.64436e-07
 2.41055e-07
 2.20465e-07
 2.02269e-07
 1.86132e-07
 1.71769e-07
 1.58944e-07
 1.47452e-07
 1.37122e-07
 1.27808e-07
 1.19385e-07
 5.74679e-07
 5.24773e-07
 4.76924e-07
 4.32534e-07
 3.92146e-07
 3.55816e-07
 3.23351e-07
 2.94441e-07
 2.68733e-07
 2.45870e-07
 2.25521e-07
 2.07380e-07
 1.91176e-07
 1.76670e-07
 1.63654e-07
 1.51944e-07
 1.41384e-07
 1.31836e-07
 1.23183e-07
 1.15321e-07
 4.68219e-07
 4.37950e-07
 4.06251e-07
 3.74941e-07
 3.45064e-07
 3.17159e-07
 2.91449e-07
 2.67968e-07
 2.46638e-07
 2.27325e-07
 2.09865e-07
 1.94089e-07
 1.79832e-07
 1.66938e-07
 1.55261e-07
 1.44673e-07
 1.35055e-07
 1.26304e-07
 1.18326e-07
 1.11040e-07
 3.81383e-07
 3.64674e-07
 3.44829e-07
 3.23605e-07
 3.02173e-07
 2.81274e-07
 2.61348e-07
 2.42633e-07
 2.25232e-07
 2.09161e-07
 1.94386e-07
 1.80840e-07
 1.68441e-07
 1.57101e-07
 1.46731e-07
 1.37244e-07
 1.28560e-07
 1.20603e-07
 1.13304e-07
 1.06600e-07
