scalar
part
         1
quad4
 3.62940e-07
 3.47032e-07
 3.28218e-07
 3.08128e-07
 2.87847e-07
 2.68065e-07
 2.49195e-07
 2.31460e-07
 2.14957e-07
 1.99705e-07
 1.85671e-07
 1.72796e-07
 1.61004e-07
 1.50212e-07
 1.40337e-07
 1.31299e-07
 1.23022e-07
 1.15434e-07
 1.08471e-07
 1.02072e-07
 4.44735e-07
 4.16103e-07
 3.86174e-07
 3.56622e-07
 3.28411e-07
 3.02042e-07
 2.77727e-07
 2.55498e-07
 2.35286e-07
 2.16968e-07
 2.00393e-07
 1.85406e-07
 1.71852e-07
 1.59584e-07
 1.48469e-07
 1.38383e-07
 1.29217e-07
 1.20873e-07
 1.13264e-07
 1.06311e-07
 5.44792e-07
 4.97809e-07
 4.52780e-07
 4.10984e-07
 3.72918e-07
 3.38636e-07
 3.07964e-07
 2.80617e-07
 2.56271e-07
 2.34598e-07
 2.15288e-07
 1.98059e-07
 1.82657e-07
 1.68860e-07
 1.56470e-07
 1.45318e-07
 1.35256e-07
 1.26154e-07
 1.17900e-07
 1.10398e-07
 6.65292e-07
 5.92714e-07
 5.27829e-07
 4.70685e-07
 4.20740e-07
 3.77231e-07
 3.39351e-07
 3.06337e-07
 2.77505e-07
 2.52255e-07
 2.30074e-07
 2.10522e-07
 1.93229e-07
 1.77881e-07
 1.64212e-07
 1.51997e-07
 1.41047e-07
 1.31200e-07
 1.22317e-07
 1.14281e-07
 8.06918e-07
 7.00104e-07
 6.10145e-07
 5.34496e-07
 4.70763e-07
 4.16875e-07
 3.71101e-07
 3.32018e-07
 2.98473e-07
 2.69527e-07
 2.44419e-07
 2.22529e-07
 2.03352e-07
 1.86473e-07
 1.71552e-07
 1.58305e-07
 1.46498e-07
 1.35934e-07
 1.26450e-07
 1.17905e-07
 9.67506e-07
 8.17279e-07
 6.97226e-07
 6.00324e-07
 5.21314e-07
 4.56260e-07
 4.02198e-07
 3.56875e-07
 3.18566e-07
 2.85939e-07
 2.57953e-07
 2.33789e-07
 2.12796e-07
 1.94454e-07
 1.78344e-07
 1.64123e-07
 1.51511e-07
 1.40279e-07
 1.30235e-07
 1.21219e-07
 1.14054e-06
 9.38907e-07
 7.85003e-07
 6.65144e-07
 5.70164e-07
 4.93746e-07
 4.31430e-07
 3.80004e-07
 3.37108e-07
 3.00979e-07
 2.70285e-07
 2.44000e-07
 2.21327e-07
 2.01640e-07
 1.84442e-07
 1.69335e-07
 1.55995e-07
 1.44159e-07
 1.33610e-07
 1.24171e-07
 1.31402e-06
 1.05675e-06
 8.67851e-07
 7.25101e-07
 6.14642e-07
 5.27455e-07
 4.57463e-07
 4.00443e-07
 3.53393e-07
 3.14126e-07
 2.81023e-07
 2.52864e-07
 2.28716e-07
 2.07853e-07
 1.89709e-07
 1.73832e-07
 1.59860e-07
 1.47503e-07
 1.36520e-07
 1.26716e-07
 1.47054e-06
 1.16008e-06
 9.39020e-07
 7.75839e-07
 6.51870e-07
 5.55447e-07
 4.78955e-07
 4.17249e-07
 3.66745e-07
 3.24886e-07
 2.89803e-07
 2.60110e-07
 2.34756e-07
 2.12934e-07
 1.94019e-07
 1.77516e-07
 1.63031e-07
 1.50249e-07
 1.38913e-07
 1.28812e-07
 1.58929e-06
 1.23716e-06
 9.91567e-07
 8.13091e-07
 6.79134e-07
 5.75938e-07
 4.94706e-07
 4.29591e-07
 3.76580e-07
 3.32837e-07
 2.96316e-07
 2.65506e-07
 2.39272e-07
 2.16750e-07
 1.97270e-07
 1.80306e-07
 1.65443e-07
 1.52347e-07
 1.40748e-07
 1.30427e-07
 1.65076e-06
 1.27769e-06
 1.01971e-06
 8.33426e-07
 6.94306e-07
 5.87558e-07
 5.03803e-07
 4.36847e-07
 3.82459e-07
 3.37668e-07
 3.00333e-07
 2.68883e-07
 2.42138e-07
 2.19203e-07
 1.99386e-07
 1.82144e-07
 1.67049e-07
 1.53759e-07
 1.41996e-07
 1.31535e-07
 1.64350e-06
 1.27591e-06
 1.02027e-06
 8.34985e-07
 6.96239e-07
 5.89570e-07
 5.05755e-07
 4.38677e-07
 3.84145e-07
 3.39206e-07
 3.01729e-07
 2.70146e-07
 2.43281e-07
 2.20238e-07
 2.00323e-07
 1.82994e-07
 1.67822e-07
 1.54463e-07
 1.42639e-07
 1.32123e-07
 1.56962e-06
 1.23265e-06
 9.93628e-07
 8.17931e-07
 6.84999e-07
 5.81994e-07
 5.00561e-07
 4.35072e-07
 3.81623e-07
 3.37435e-07
 3.00487e-07
 2.69282e-07
 2.42689e-07
 2.19843e-07
 2.00072e-07
 1.82849e-07
 1.67755e-07
 1.54453e-07
 1.42670e-07
 1.32184e-07
 1.44424e-06
 1.15528e-06
 9.43635e-07
 7.84419e-07
 6.61851e-07
 5.65601e-07
 4.88707e-07
 4.26347e-07
 3.75102e-07
 3.32497e-07
 2.96707e-07
 2.66359e-07
 2.40410e-07
 2.18053e-07
 1.98659e-07
 1.81727e-07
 1.66861e-07
 1.53738e-07
 1.42098e-07
 1.31726e-07
 1.28910e-06
 1.05509e-06
 8.76538e-07
 7.38077e-07
 6.28992e-07
 5.41772e-07
 4.71087e-07
 4.13095e-07
 3.64987e-07
 3.24674e-07
 2.90585e-07
 2.61519e-07
 2.36548e-07
 2.14946e-07
 1.96140e-07
 1.79672e-07
 1.65173e-07
 1.52345e-07
 1.40942e-07
 1.30763e-07
 1.12492e-06
 9.43976e-07
 7.99374e-07
 6.83205e-07
 5.89134e-07
 5.12265e-07
 4.48870e-07
 3.96112e-07
 3.51829e-07
 3.14355e-07
 2.82404e-07
 2.54968e-07
 2.31255e-07
 2.10635e-07
 1.92602e-07
 1.76748e-07
 1.62743e-07
 1.50313e-07
 1.39234e-07
 1.29320e-07
 9.66831e-07
 8.31852e-07
 7.18564e-07
 6.23998e-07
 5.45056e-07
 4.78954e-07
 4.23343e-07
 3.76298e-07
 3.36267e-07
 3.02001e-07
 2.72499e-07
 2.46955e-07
 2.24718e-07
 2.05261e-07
 1.88153e-07
 1.73041e-07
 1.59635e-07
 1.47693e-07
 1.37014e-07
 1.27430e-07
 8.23522e-07
 7.25541e-07
 6.39093e-07
 5.63997e-07
 4.99260e-07
 4.43612e-07
 3.95771e-07
 3.54565e-07
 3.18966e-07
 2.88102e-07
 2.61236e-07
 2.37754e-07
 2.17146e-07
 1.98985e-07
 1.82918e-07
 1.68648e-07
 1.55927e-07
 1.44547e-07
 1.34331e-07
 1.25131e-07
 6.98530e-07
 6.28899e-07
 5.64289e-07
 5.05843e-07
 4.53764e-07
 4.07755e-07
 3.67290e-07
 3.31761e-07
 3.00566e-07
 2.73141e-07
 2.48982e-07
 2.27649e-07
 2.08757e-07
 1.91977e-07
 1.77030e-07
 1.63673e-07
 1.51702e-07
 1.40941e-07
 1.31240e-07
 1.22469e-07
 5.92117e-07
 5.43497e-07
 4.96018e-07
 4.51272e-07
 4.10036e-07
 3.72573e-07
 3.38840e-07
 3.08625e-07
 2.81639e-07
 2.57565e-07
 2.36089e-07
 2.16913e-07
 1.99767e-07
 1.84409e-07
 1.70626e-07
 1.58227e-07
 1.47049e-07
 1.36947e-07
 1.27798e-07
 1.19491e-07
