# vtk DataFile Version 2.0
gauge_2
ASCII
DATASET POLYDATA
POINTS 109 double
0.2 0.0314993 0.005
0.2 0.0329993 0.005
0.2 0.0344993 0.005
0.2 0.0359992 0.005
0.2 0.0374992 0.005
0.2 0.0389992 0.005
0.2 0.0404991 0.005
0.2 0.0419991 0.005
0.2 0.0434991 0.005
0.2 0.044999 0.005
0.2 0.046499 0.005
0.2 0.047999 0.005
0.2 0.0511894 0.005
0.2 0.0543799 0.005
0.2 0.0575704 0.005
0.2 0.0607609 0.005
0.2 0.0639514 0.005
0.2 0.0671419 0.005
0.2 0.0703323 0.005
0.2 0.0735228 0.005
0.2 0.0767133 0.005
0.2 0.0799038 0.005
0.2 0.0830943 0.005
0.2 0.0862847 0.005
0.2 0.0894752 0.005
0.2 0.0926657 0.005
0.2 0.0990467 0.005
0.2 0.111809 0.005
0.2 0.124571 0.005
0.2 0.137332 0.005
0.2 0.150094 0.005
0.2 0.162856 0.005
0.2 0.175618 0.005
0.2 0.18838 0.005
0.2 0.201142 0.005
0.2 0.213904 0.005
0.2 0.220285 0.005
0.2 0.226666 0.005
0.2 0.229856 0.005
0.2 0.233047 0.005
0.2 0.236237 0.005
0.2 0.239428 0.005
0.2 0.242618 0.005
0.2 0.245809 0.005
0.2 0.25219 0.005
0.2 0.264952 0.005
0.2 0.277714 0.005
0.2 0.290476 0.005
0.2 0.296857 0.005
0.2 0.303238 0.005
0.2 0.306428 0.005
0.2 0.309619 0.005
0.2 0.312809 0.005
0.2 0.315999 0.005
0.2 0.31919 0.005
0.2 0.32238 0.005
0.2 0.325571 0.005
0.2 0.328761 0.005
0.2 0.335142 0.005
0.2 0.341523 0.005
0.2 0.347904 0.005
0.2 0.354285 0.005
0.2 0.360666 0.005
0.2 0.363857 0.005
0.2 0.367047 0.005
0.2 0.370238 0.005
0.2 0.373428 0.005
0.2 0.376619 0.005
0.2 0.379809 0.005
0.2 0.383 0.005
0.2 0.38619 0.005
0.2 0.389381 0.005
0.2 0.392571 0.005
0.2 0.395762 0.005
0.2 0.398952 0.005
0.2 0.402142 0.005
0.2 0.405333 0.005
0.2 0.408523 0.005
0.2 0.411714 0.005
0.2 0.418095 0.005
0.2 0.424476 0.005
0.2 0.430857 0.005
0.2 0.434047 0.005
0.2 0.437238 0.005
0.2 0.440428 0.005
0.2 0.443619 0.005
0.2 0.446809 0.005
0.2 0.45 0.005
0.2 0.45319 0.005
0.2 0.456381 0.005
0.2 0.459571 0.005
0.2 0.462762 0.005
0.2 0.465952 0.005
0.2 0.469143 0.005
0.2 0.472333 0.005
0.2 0.475524 0.005
0.2 0.478714 0.005
0.2 0.481905 0.005
0.2 0.485095 0.005
0.2 0.488286 0.005
0.2 0.491476 0.005
0.2 0.494666 0.005
0.2 0.497857 0.005
0.2 0.501047 0.005
0.2 0.507428 0.005
0.2 0.52019 0.005
0.2 0.532952 0.005
0.2 0.545714 0.005
0.2 0.558476 0.005
POINT_DATA 109
 FIELD attributes 1
alpha.water 1 109 float
1 1 1 1 1 1 1 1 1 1 1 1 1 1 0.999999 0.999995 1 0.999972 0.999491 0.977398 0.986853 0.516256 0.13063 2.47786e-12 6.94922e-11 1.22105e-10 2.62659e-10 3.29338e-10 2.17055e-10 1.00084e-10 3.11359e-11 4.94033e-12 2.80931e-11 1.9089e-11 1.7893e-10 8.49001e-11 4.9962e-08 3.65473e-07 -0.000594932 1.20209e-06 2.01005e-06 5.80542e-06 -8.20371e-05 1.98366e-06 3.83311e-06 7.36824e-07 9.52781e-07 3.77251e-08 1.07183e-07 2.93789e-05 4.13449e-05 0.000551952 0.000602099 0.000602612 -9.96792e-05 0.000234373 1.6425e-05 1.36706e-05 3.03489e-05 7.13377e-05 9.74561e-05 6.41659e-05 8.09422e-06 2.56626e-06 3.17293e-06 1.44425e-05 0.000142697 0.0011305 0.00214899 0.000425557 0.00055651 2.66971e-05 4.0413e-06 -0.000141673 9.5719e-07 4.62272e-07 3.10681e-07 1.7441e-05 4.8538e-05 0.000261336 0.000155415 7.88165e-05 -4.00447e-05 0.000325487 0.000442849 0.000240684 -5.39342e-06 0.000598396 0.00132704 0.00187646 0.00271709 0.00109752 0.00143362 0.0011836 -0.000658594 0.000100482 9.48264e-05 9.26496e-05 0.000151261 0.000144119 6.8032e-05 6.35069e-06 1.78692e-10 3.76437e-09 4.16946e-08 2.10829e-08 -8.07405e-18 -8.07455e-18 -4.95668e-22
