scalar
part
         1
quad4
 6.19252e-07
 5.68420e-07
 5.18800e-07
 4.72033e-07
 4.28926e-07
 3.89753e-07
 3.54471e-07
 3.22861e-07
 2.94623e-07
 2.69429e-07
 2.46949e-07
 2.26876e-07
 2.08927e-07
 1.92850e-07
 1.78420e-07
 1.65440e-07
 1.53738e-07
 1.43164e-07
 1.33587e-07
 1.24892e-07
 7.30361e-07
 6.57661e-07
 5.90191e-07
 5.29132e-07
 4.74700e-07
 4.26593e-07
 3.84267e-07
 3.47094e-07
 3.14446e-07
 2.85740e-07
 2.60450e-07
 2.38114e-07
 2.18335e-07
 2.00767e-07
 1.85117e-07
 1.71133e-07
 1.58601e-07
 1.47335e-07
 1.37180e-07
 1.28000e-07
 8.60982e-07
 7.58762e-07
 6.68513e-07
 5.90062e-07
 5.22390e-07
 4.64189e-07
 4.14133e-07
 3.71006e-07
 3.33739e-07
 3.01423e-07
 2.73291e-07
 2.48701e-07
 2.27120e-07
 2.08102e-07
 1.91277e-07
 1.76335e-07
 1.63016e-07
 1.51102e-07
 1.40408e-07
 1.30778e-07
 1.01099e-06
 8.70183e-07
 7.51886e-07
 6.53050e-07
 5.70485e-07
 5.01312e-07
 4.43093e-07
 3.93830e-07
 3.51903e-07
 3.16010e-07
 2.85106e-07
 2.58348e-07
 2.35055e-07
 2.14675e-07
 1.96757e-07
 1.80931e-07
 1.66892e-07
 1.54388e-07
 1.43208e-07
 1.33175e-07
 1.17692e-06
 9.88046e-07
 8.36912e-07
 7.15381e-07
 6.16897e-07
 5.36385e-07
 4.69964e-07
 4.14679e-07
 3.68269e-07
 3.28996e-07
 2.95510e-07
 2.66760e-07
 2.41912e-07
 2.20307e-07
 2.01416e-07
 1.84810e-07
 1.70141e-07
 1.57125e-07
 1.45525e-07
 1.35146e-07
 1.35007e-06
 1.10539e-06
 9.18462e-07
 7.73383e-07
 6.59023e-07
 5.67558e-07
 4.93422e-07
 4.32597e-07
 3.82140e-07
 3.39864e-07
 3.04119e-07
 2.73646e-07
 2.47470e-07
 2.24830e-07
 2.05123e-07
 1.87870e-07
 1.72682e-07
 1.59247e-07
 1.47307e-07
 1.36649e-07
 1.51500e-06
 1.21199e-06
 9.89858e-07
 8.22672e-07
 6.93945e-07
 5.92859e-07
 5.12109e-07
 4.46634e-07
 3.92841e-07
 3.48129e-07
 3.10577e-07
 2.78744e-07
 2.51532e-07
 2.28093e-07
 2.07764e-07
 1.90021e-07
 1.74446e-07
 1.60700e-07
 1.48510e-07
 1.37650e-07
 1.65021e-06
 1.29539e-06
 1.04368e-06
 8.58698e-07
 7.18787e-07
 6.10418e-07
 5.24782e-07
 4.55944e-07
 3.99785e-07
 3.53375e-07
 3.14585e-07
 2.81836e-07
 2.53937e-07
 2.29976e-07
 2.09248e-07
 1.91196e-07
 1.75379e-07
 1.61443e-07
 1.49102e-07
 1.38122e-07
 1.73252e-06
 1.34346e-06
 1.07321e-06
 8.77546e-07
 7.31176e-07
 6.18747e-07
 5.30478e-07
 4.59887e-07
 4.02535e-07
 3.55301e-07
 3.15931e-07
 2.82769e-07
 2.54573e-07
 2.30398e-07
 2.09513e-07
 1.91346e-07
 1.75445e-07
 1.61448e-07
 1.49062e-07
 1.38050e-07
 1.74490e-06
 1.34791e-06
 1.07410e-06
 8.76795e-07
 7.29695e-07
 6.16983e-07
 5.28653e-07
 4.58112e-07
 4.00862e-07
 3.53749e-07
 3.14507e-07
 2.81468e-07
 2.53388e-07
 2.29319e-07
 2.08531e-07
 1.90452e-07
 1.74630e-07
 1.60704e-07
 1.48382e-07
 1.37426e-07
 1.68360e-06
 1.30717e-06
 1.04563e-06
 8.56104e-07
 7.14183e-07
 6.05052e-07
 5.19279e-07
 4.50611e-07
 3.94767e-07
 3.48729e-07
 3.10322e-07
 2.77943e-07
 2.50391e-07
 2.26750e-07
 2.06312e-07
 1.88522e-07
 1.72941e-07
 1.59217e-07
 1.47066e-07
 1.36257e-07
 1.55967e-06
 1.22686e-06
 9.90903e-07
 8.17308e-07
 6.85778e-07
 5.83691e-07
 5.02848e-07
 4.37726e-07
 3.84492e-07
 3.40414e-07
 3.03506e-07
 2.72292e-07
 2.45658e-07
 2.22748e-07
 2.02900e-07
 1.85591e-07
 1.70406e-07
 1.57011e-07
 1.45135e-07
 1.34557e-07
 1.39373e-06
 1.11776e-06
 9.15964e-07
 7.63976e-07
 6.46689e-07
 5.54321e-07
 4.80306e-07
 4.20102e-07
 3.70489e-07
 3.29130e-07
 2.94297e-07
 2.64691e-07
 2.39319e-07
 2.17414e-07
 1.98374e-07
 1.81721e-07
 1.67074e-07
 1.54124e-07
 1.42618e-07
 1.32352e-07
 1.20856e-06
 9.92559e-07
 8.28238e-07
 7.00645e-07
 5.99791e-07
 5.18823e-07
 4.52917e-07
 3.98613e-07
 3.53375e-07
 3.15318e-07
 2.83017e-07
 2.55380e-07
 2.31558e-07
 2.10888e-07
 1.92842e-07
 1.76997e-07
 1.63012e-07
 1.50609e-07
 1.39560e-07
 1.29676e-07
 1.02347e-06
 8.62990e-07
 7.35038e-07
 6.31996e-07
 5.48160e-07
 4.79264e-07
 4.22105e-07
 3.74255e-07
 3.33863e-07
 2.99499e-07
 2.70051e-07
 2.44646e-07
 2.22593e-07
 2.03337e-07
 1.86433e-07
 1.71520e-07
 1.58301e-07
 1.46532e-07
 1.36013e-07
 1.26573e-07
 8.51766e-07
 7.38110e-07
 6.42491e-07
 5.62201e-07
 4.94667e-07
 4.37652e-07
 3.89290e-07
 3.48053e-07
 3.12699e-07
 2.82223e-07
 2.55812e-07
 2.32805e-07
 2.12663e-07
 1.94948e-07
 1.79295e-07
 1.65406e-07
 1.53033e-07
 1.41967e-07
 1.32036e-07
 1.23091e-07
 7.00618e-07
 6.23759e-07
 5.55031e-07
 4.94537e-07
 4.41713e-07
 3.95746e-07
 3.55770e-07
 3.20968e-07
 2.90603e-07
 2.64035e-07
 2.40714e-07
 2.20174e-07
 2.02018e-07
 1.85914e-07
 1.71580e-07
 1.58778e-07
 1.47306e-07
 1.36993e-07
 1.27694e-07
 1.19283e-07
 5.72332e-07
 5.22864e-07
 4.75369e-07
 4.31263e-07
 3.91101e-07
 3.54951e-07
 3.22632e-07
 2.93838e-07
 2.68223e-07
 2.45437e-07
 2.25150e-07
 2.07061e-07
 1.90900e-07
 1.76430e-07
 1.63443e-07
 1.51759e-07
 1.41221e-07
 1.31692e-07
 1.23054e-07
 1.15205e-07
 4.66091e-07
 4.36172e-07
 4.04768e-07
 3.73703e-07
 3.44028e-07
 3.16288e-07
 2.90715e-07
 2.67345e-07
 2.46107e-07
 2.26869e-07
 2.09472e-07
 1.93749e-07
 1.79536e-07
 1.66678e-07
 1.55033e-07
 1.44472e-07
 1.34877e-07
 1.26145e-07
 1.18185e-07
 1.10913e-07
 3.79468e-07
 3.63037e-07
 3.43435e-07
 3.22420e-07
 3.01165e-07
 2.80414e-07
 2.60613e-07
 2.42003e-07
 2.24689e-07
 2.08691e-07
 1.93978e-07
 1.80484e-07
 1.68129e-07
 1.56826e-07
 1.46488e-07
 1.37029e-07
 1.28369e-07
 1.20432e-07
 1.13151e-07
 1.06463e-07
