# vtk DataFile Version 2.0
gauge_2
ASCII
DATASET POLYDATA
POINTS 109 double
0.2 0.0314993 0.005
0.2 0.0329993 0.005
0.2 0.0344993 0.005
0.2 0.0359992 0.005
0.2 0.0374992 0.005
0.2 0.0389992 0.005
0.2 0.0404991 0.005
0.2 0.0419991 0.005
0.2 0.0434991 0.005
0.2 0.044999 0.005
0.2 0.046499 0.005
0.2 0.047999 0.005
0.2 0.0511894 0.005
0.2 0.0543799 0.005
0.2 0.0575704 0.005
0.2 0.0607609 0.005
0.2 0.0639514 0.005
0.2 0.0671419 0.005
0.2 0.0703323 0.005
0.2 0.0735228 0.005
0.2 0.0767133 0.005
0.2 0.0799038 0.005
0.2 0.0830943 0.005
0.2 0.0862847 0.005
0.2 0.0894752 0.005
0.2 0.0926657 0.005
0.2 0.0990467 0.005
0.2 0.111809 0.005
0.2 0.124571 0.005
0.2 0.137332 0.005
0.2 0.150094 0.005
0.2 0.162856 0.005
0.2 0.175618 0.005
0.2 0.18838 0.005
0.2 0.201142 0.005
0.2 0.213904 0.005
0.2 0.226666 0.005
0.2 0.233047 0.005
0.2 0.239428 0.005
0.2 0.242618 0.005
0.2 0.245809 0.005
0.2 0.248999 0.005
0.2 0.25219 0.005
0.2 0.25538 0.005
0.2 0.258571 0.005
0.2 0.261761 0.005
0.2 0.264952 0.005
0.2 0.268142 0.005
0.2 0.271333 0.005
0.2 0.277714 0.005
0.2 0.290476 0.005
0.2 0.303238 0.005
0.2 0.315999 0.005
0.2 0.328761 0.005
0.2 0.335142 0.005
0.2 0.341523 0.005
0.2 0.347904 0.005
0.2 0.354285 0.005
0.2 0.360666 0.005
0.2 0.367047 0.005
0.2 0.370238 0.005
0.2 0.373428 0.005
0.2 0.376619 0.005
0.2 0.379809 0.005
0.2 0.383 0.005
0.2 0.38619 0.005
0.2 0.389381 0.005
0.2 0.392571 0.005
0.2 0.395762 0.005
0.2 0.398952 0.005
0.2 0.402142 0.005
0.2 0.405333 0.005
0.2 0.408523 0.005
0.2 0.411714 0.005
0.2 0.414904 0.005
0.2 0.418095 0.005
0.2 0.421285 0.005
0.2 0.424476 0.005
0.2 0.427666 0.005
0.2 0.430857 0.005
0.2 0.437238 0.005
0.2 0.443619 0.005
0.2 0.446809 0.005
0.2 0.45 0.005
0.2 0.45319 0.005
0.2 0.456381 0.005
0.2 0.459571 0.005
0.2 0.462762 0.005
0.2 0.465952 0.005
0.2 0.469143 0.005
0.2 0.472333 0.005
0.2 0.475524 0.005
0.2 0.478714 0.005
0.2 0.481905 0.005
0.2 0.485095 0.005
0.2 0.488286 0.005
0.2 0.491476 0.005
0.2 0.494666 0.005
0.2 0.497857 0.005
0.2 0.501047 0.005
0.2 0.504238 0.005
0.2 0.507428 0.005
0.2 0.510619 0.005
0.2 0.513809 0.005
0.2 0.52019 0.005
0.2 0.526571 0.005
0.2 0.532952 0.005
0.2 0.545714 0.005
0.2 0.558476 0.005
POINT_DATA 109
 FIELD attributes 1
alpha.water 1 109 float
1 1 1 1 1 1 1 1 1 1 1 1 1 1 1 0.999998 1 0.999977 0.999948 0.999131 0.999997 0.839476 0.464374 0.0969433 3.51559e-12 3.61743e-11 2.31388e-10 3.7665e-10 2.8554e-10 1.5625e-10 5.86709e-11 1.15429e-11 7.5393e-13 9.82033e-15 -4.24609e-15 1.54434e-13 6.62061e-11 3.18688e-09 4.10296e-08 -7.35886e-05 0.000705316 0.00170778 0.00254482 0.00745203 0.00266979 0.00166705 0.000694627 3.67621e-05 3.98158e-06 1.51477e-06 2.43166e-06 2.11471e-07 2.93232e-07 3.98993e-07 3.06353e-07 6.94324e-06 2.58111e-05 3.98868e-05 3.51933e-05 4.9679e-05 -3.752e-05 0.000152942 0.00166325 0.00557933 0.0187974 0.00483244 0.00250931 0.0038184 0.0139934 0.00728983 0.00409147 0.00185613 -0.0002295 0.000342177 0.00024628 0.000447471 -0.00164069 6.95216e-05 3.87797e-05 7.17503e-05 6.422e-05 0.000171349 -0.000266103 0.000274113 0.00018353 0.000199829 -7.59532e-05 0.000177834 0.00108835 0.00288318 0.00800816 0.00327146 0.00175902 0.00174648 -0.00137781 0.000887167 0.000215693 0.000113311 7.13969e-05 2.25322e-06 1.06379e-06 7.59026e-09 -9.90862e-09 5.54427e-09 6.62279e-09 1.96822e-09 3.0389e-12 -1.25265e-17 -3.16348e-21
