scalar
part
         1
quad4
 4.76157e-07
 4.43451e-07
 4.09977e-07
 3.77335e-07
 3.46439e-07
 3.17749e-07
 2.91432e-07
 2.67482e-07
 2.45791e-07
 2.26200e-07
 2.08529e-07
 1.92595e-07
 1.78222e-07
 1.65244e-07
 1.53510e-07
 1.42885e-07
 1.33247e-07
 1.24488e-07
 1.16514e-07
 1.09240e-07
 5.69719e-07
 5.20089e-07
 4.72479e-07
 4.28273e-07
 3.88026e-07
 3.51816e-07
 3.19460e-07
 2.90655e-07
 2.65050e-07
 2.42293e-07
 2.22050e-07
 2.04015e-07
 1.87917e-07
 1.73516e-07
 1.60603e-07
 1.48995e-07
 1.38534e-07
 1.29083e-07
 1.20523e-07
 1.12752e-07
 6.81490e-07
 6.08460e-07
 5.42392e-07
 4.83787e-07
 4.32349e-07
 3.87434e-07
 3.48283e-07
 3.14147e-07
 2.84333e-07
 2.58232e-07
 2.35313e-07
 2.15123e-07
 1.97278e-07
 1.81451e-07
 1.67367e-07
 1.54791e-07
 1.43525e-07
 1.33402e-07
 1.24277e-07
 1.16028e-07
 8.12322e-07
 7.07979e-07
 6.18624e-07
 5.42708e-07
 4.78338e-07
 4.23690e-07
 3.77149e-07
 3.37347e-07
 3.03150e-07
 2.73624e-07
 2.48006e-07
 2.25670e-07
 2.06103e-07
 1.88886e-07
 1.73669e-07
 1.60164e-07
 1.48133e-07
 1.37373e-07
 1.27716e-07
 1.19020e-07
 9.60616e-07
 8.16250e-07
 6.98857e-07
 6.03067e-07
 5.24412e-07
 4.59345e-07
 4.05097e-07
 3.59515e-07
 3.20928e-07
 2.88026e-07
 2.59782e-07
 2.35383e-07
 2.14180e-07
 1.95651e-07
 1.79375e-07
 1.65009e-07
 1.52270e-07
 1.40925e-07
 1.30783e-07
 1.21681e-07
 1.12070e-06
 9.28376e-07
 7.79285e-07
 6.62021e-07
 5.68476e-07
 4.92861e-07
 4.30994e-07
 3.79810e-07
 3.37037e-07
 3.00962e-07
 2.70281e-07
 2.43986e-07
 2.21292e-07
 2.01579e-07
 1.84353e-07
 1.69218e-07
 1.55852e-07
 1.43992e-07
 1.33423e-07
 1.23966e-07
 1.28146e-06
 1.03662e-06
 8.54624e-07
 7.15960e-07
 6.08041e-07
 5.22499e-07
 4.53607e-07
 3.97346e-07
 3.50833e-07
 3.11958e-07
 2.79147e-07
 2.51211e-07
 2.27235e-07
 2.06511e-07
 1.88479e-07
 1.72695e-07
 1.58802e-07
 1.46511e-07
 1.35586e-07
 1.25833e-07
 1.42629e-06
 1.13086e-06
 9.18570e-07
 7.60848e-07
 6.40457e-07
 5.46476e-07
 4.71712e-07
 4.11266e-07
 3.61706e-07
 3.20569e-07
 2.86054e-07
 2.56813e-07
 2.31826e-07
 2.10307e-07
 1.91645e-07
 1.75355e-07
 1.61054e-07
 1.48429e-07
 1.37230e-07
 1.27250e-07
 1.53571e-06
 1.20025e-06
 9.64760e-07
 7.92799e-07
 6.63262e-07
 5.63186e-07
 4.84233e-07
 4.20829e-07
 3.69134e-07
 3.26426e-07
 2.90732e-07
 2.60594e-07
 2.34914e-07
 2.12854e-07
 1.93764e-07
 1.77132e-07
 1.62554e-07
 1.49705e-07
 1.38322e-07
 1.28190e-07
 1.59238e-06
 1.23565e-06
 9.88050e-07
 8.08763e-07
 6.74573e-07
 5.71423e-07
 4.90372e-07
 4.25497e-07
 3.72745e-07
 3.29262e-07
 2.92990e-07
 2.62413e-07
 2.36396e-07
 2.14073e-07
 1.94775e-07
 1.77978e-07
 1.63267e-07
 1.50310e-07
 1.38839e-07
 1.28634e-07
 1.58670e-06
 1.23210e-06
 9.85704e-07
 8.07143e-07
 6.73413e-07
 5.70567e-07
 4.89724e-07
 4.24996e-07
 3.72351e-07
 3.28946e-07
 2.92734e-07
 2.62203e-07
 2.36221e-07
 2.13926e-07
 1.94650e-07
 1.77872e-07
 1.63175e-07
 1.50231e-07
 1.38769e-07
 1.28573e-07
 1.51994e-06
 1.19022e-06
 9.58053e-07
 7.88125e-07
 6.59892e-07
 5.60687e-07
 4.82334e-07
 4.19356e-07
 3.67971e-07
 3.25492e-07
 2.89972e-07
 2.59968e-07
 2.34394e-07
 2.12416e-07
 1.93392e-07
 1.76814e-07
 1.62281e-07
 1.49468e-07
 1.38115e-07
 1.28008e-07
 1.40362e-06
 1.11598e-06
 9.08382e-07
 7.53627e-07
 6.35183e-07
 5.42525e-07
 4.68687e-07
 4.08904e-07
 3.59831e-07
 3.19059e-07
 2.84821e-07
 2.55794e-07
 2.30976e-07
 2.09591e-07
 1.91036e-07
 1.74834e-07
 1.60604e-07
 1.48039e-07
 1.36889e-07
 1.26951e-07
 1.25557e-06
 1.01890e-06
 8.42119e-07
 7.06888e-07
 6.01297e-07
 5.17376e-07
 4.49640e-07
 3.94222e-07
 3.48335e-07
 3.09933e-07
 2.77486e-07
 2.49833e-07
 2.26081e-07
 2.05536e-07
 1.87648e-07
 1.71982e-07
 1.58185e-07
 1.45975e-07
 1.35117e-07
 1.25421e-07
 1.09463e-06
 9.09685e-07
 7.65622e-07
 6.51837e-07
 5.60743e-07
 4.86887e-07
 4.26305e-07
 3.76076e-07
 3.34024e-07
 2.98502e-07
 2.68250e-07
 2.42292e-07
 2.19867e-07
 2.00370e-07
 1.83319e-07
 1.68328e-07
 1.55080e-07
 1.43320e-07
 1.32834e-07
 1.23446e-07
 9.36255e-07
 7.97958e-07
 6.84990e-07
 5.92428e-07
 5.16145e-07
 4.52838e-07
 3.99911e-07
 3.55333e-07
 3.17517e-07
 2.85216e-07
 2.57445e-07
 2.33422e-07
 2.12521e-07
 1.94237e-07
 1.78161e-07
 1.63960e-07
 1.51358e-07
 1.40129e-07
 1.30083e-07
 1.21063e-07
 7.90553e-07
 6.90916e-07
 6.05225e-07
 5.32128e-07
 4.69920e-07
 4.16933e-07
 3.71675e-07
 3.32873e-07
 2.99459e-07
 2.70554e-07
 2.45431e-07
 2.23494e-07
 2.04251e-07
 1.87299e-07
 1.72300e-07
 1.58977e-07
 1.47097e-07
 1.36464e-07
 1.26916e-07
 1.18312e-07
 6.62525e-07
 5.93017e-07
 5.29864e-07
 4.73619e-07
 4.24068e-07
 3.80656e-07
 3.42701e-07
 3.09519e-07
 2.80470e-07
 2.54985e-07
 2.32566e-07
 2.12784e-07
 1.95274e-07
 1.79724e-07
 1.65869e-07
 1.53486e-07
 1.42382e-07
 1.32396e-07
 1.23388e-07
 1.15239e-07
 5.53406e-07
 5.06362e-07
 4.61016e-07
 4.18730e-07
 3.80082e-07
 3.45189e-07
 3.13913e-07
 2.85991e-07
 2.61109e-07
 2.38946e-07
 2.19191e-07
 2.01561e-07
 1.85800e-07
 1.71680e-07
 1.59003e-07
 1.47594e-07
 1.37301e-07
 1.27994e-07
 1.19558e-07
 1.11892e-07
 4.62192e-07
 4.31371e-07
 3.99630e-07
 3.68522e-07
 3.38952e-07
 3.11391e-07
 2.86026e-07
 2.62874e-07
 2.41849e-07
 2.22817e-07
 2.05613e-07
 1.90072e-07
 1.76029e-07
 1.63329e-07
 1.51832e-07
 1.41408e-07
 1.31942e-07
 1.23331e-07
 1.15484e-07
 1.08320e-07
