// State file for writer output

times           10001 ( 100.0000000000143 100.0100000000143 100.0200000000143 100.0300000000143 100.0400000000143 100.0500000000143 100.0600000000143 100.0700000000143 100.0800000000143 100.0900000000143 100.1000000000143 100.1100000000143 100.1200000000143 100.1300000000143 100.1400000000143 100.1500000000143 100.1600000000143 100.1700000000143 100.1800000000143 100.1900000000144 100.2000000000144 100.2100000000144 100.2200000000144 100.2300000000144 100.2400000000144 100.2500000000144 100.2600000000144 100.2700000000144 100.2800000000144 100.2900000000144 100.3000000000144 100.3100000000144 100.3200000000144 100.3300000000144 100.3400000000144 100.3500000000144 100.3600000000144 100.3700000000144 100.3800000000144 100.3900000000145 100.4000000000145 100.4100000000145 100.4200000000145 100.4300000000145 100.4400000000145 100.4500000000145 100.4600000000145 100.4700000000145 100.4800000000145 100.4900000000145 100.5000000000145 100.5100000000145 100.5200000000145 100.5300000000145 100.5400000000145 100.5500000000145 100.5600000000145 100.5700000000145 100.5800000000146 100.5900000000146 100.6000000000146 100.6100000000146 100.6200000000146 100.6300000000146 100.6400000000146 100.6500000000146 100.6600000000146 100.6700000000146 100.6800000000146 100.6900000000146 100.7000000000146 100.7100000000146 100.7200000000146 100.7300000000146 100.7400000000146 100.7500000000146 100.7600000000146 100.7700000000146 100.7800000000147 100.7900000000147 100.8000000000147 100.8100000000147 100.8200000000147 100.8300000000147 100.8400000000147 100.8500000000147 100.8600000000147 100.8700000000147 100.8800000000147 100.8900000000147 100.9000000000147 100.9100000000147 100.9200000000147 100.9300000000147 100.9400000000147 100.9500000000147 100.9600000000147 100.9700000000147 100.9800000000148 100.9900000000148 101.0000000000148 101.0100000000148 101.0200000000148 101.0300000000148 101.0400000000148 101.0500000000148 101.0600000000148 101.0700000000148 101.0800000000148 101.0900000000148 101.1000000000148 101.1100000000148 101.1200000000148 101.1300000000148 101.1400000000148 101.1500000000148 101.1600000000148 101.1700000000149 101.1800000000149 101.1900000000149 101.2000000000149 101.2100000000149 101.2200000000149 101.2300000000149 101.2400000000149 101.2500000000149 101.2600000000149 101.2700000000149 101.2800000000149 101.2900000000149 101.3000000000149 101.3100000000149 101.3200000000149 101.3300000000149 101.3400000000149 101.3500000000149 101.3600000000149 101.370000000015 101.380000000015 101.390000000015 101.400000000015 101.410000000015 101.420000000015 101.430000000015 101.440000000015 101.450000000015 101.460000000015 101.470000000015 101.480000000015 101.490000000015 101.500000000015 101.510000000015 101.520000000015 101.530000000015 101.540000000015 101.550000000015 101.5600000000151 101.5700000000151 101.5800000000151 101.5900000000151 101.6000000000151 101.6100000000151 101.6200000000151 101.6300000000151 101.6400000000151 101.6500000000151 101.6600000000151 101.6700000000151 101.6800000000151 101.6900000000151 101.7000000000151 101.7100000000151 101.7200000000151 101.7300000000151 101.7400000000151 101.7500000000151 101.7600000000152 101.7700000000152 101.7800000000152 101.7900000000152 101.8000000000152 101.8100000000152 101.8200000000152 101.8300000000152 101.8400000000152 101.8500000000152 101.8600000000152 101.8700000000152 101.8800000000152 101.8900000000152 101.9000000000152 101.9100000000152 101.9200000000152 101.9300000000152 101.9400000000152 101.9500000000153 101.9600000000153 101.9700000000153 101.9800000000153 101.9900000000153 102.0000000000153 102.0100000000153 102.0200000000153 102.0300000000153 102.0400000000153 102.0500000000153 102.0600000000153 102.0700000000153 102.0800000000153 102.0900000000153 102.1000000000153 102.1100000000153 102.1200000000153 102.1300000000153 102.1400000000153 102.1500000000154 102.1600000000154 102.1700000000154 102.1800000000154 102.1900000000154 102.2000000000154 102.2100000000154 102.2200000000154 102.2300000000154 102.2400000000154 102.2500000000154 102.2600000000154 102.2700000000154 102.2800000000154 102.2900000000154 102.3000000000154 102.3100000000154 102.3200000000154 102.3300000000154 102.3400000000155 102.3500000000155 102.3600000000155 102.3700000000155 102.3800000000155 102.3900000000155 102.4000000000155 102.4100000000155 102.4200000000155 102.4300000000155 102.4400000000155 102.4500000000155 102.4600000000155 102.4700000000155 102.4800000000155 102.4900000000155 102.5000000000155 102.5100000000155 102.5200000000155 102.5300000000155 102.5400000000156 102.5500000000156 102.5600000000156 102.5700000000156 102.5800000000156 102.5900000000156 102.6000000000156 102.6100000000156 102.6200000000156 102.6300000000156 102.6400000000156 102.6500000000156 102.6600000000156 102.6700000000156 102.6800000000156 102.6900000000156 102.7000000000156 102.7100000000156 102.7200000000156 102.7300000000157 102.7400000000157 102.7500000000157 102.7600000000157 102.7700000000157 102.7800000000157 102.7900000000157 102.8000000000157 102.8100000000157 102.8200000000157 102.8300000000157 102.8400000000157 102.8500000000157 102.8600000000157 102.8700000000157 102.8800000000157 102.8900000000157 102.9000000000157 102.9100000000157 102.9200000000157 102.9300000000158 102.9400000000158 102.9500000000158 102.9600000000158 102.9700000000158 102.9800000000158 102.9900000000158 103.0000000000158 103.0100000000158 103.0200000000158 103.0300000000158 103.0400000000158 103.0500000000158 103.0600000000158 103.0700000000158 103.0800000000158 103.0900000000158 103.1000000000158 103.1100000000158 103.1200000000158 103.1300000000159 103.1400000000159 103.1500000000159 103.1600000000159 103.1700000000159 103.1800000000159 103.1900000000159 103.2000000000159 103.2100000000159 103.2200000000159 103.2300000000159 103.2400000000159 103.2500000000159 103.2600000000159 103.2700000000159 103.2800000000159 103.2900000000159 103.3000000000159 103.3100000000159 103.320000000016 103.330000000016 103.340000000016 103.350000000016 103.360000000016 103.370000000016 103.380000000016 103.390000000016 103.400000000016 103.410000000016 103.420000000016 103.430000000016 103.440000000016 103.450000000016 103.460000000016 103.470000000016 103.480000000016 103.490000000016 103.500000000016 103.510000000016 103.5200000000161 103.5300000000161 103.5400000000161 103.5500000000161 103.5600000000161 103.5700000000161 103.5800000000161 103.5900000000161 103.6000000000161 103.6100000000161 103.6200000000161 103.6300000000161 103.6400000000161 103.6500000000161 103.6600000000161 103.6700000000161 103.6800000000161 103.6900000000161 103.7000000000161 103.7100000000162 103.7200000000162 103.7300000000162 103.7400000000162 103.7500000000162 103.7600000000162 103.7700000000162 103.7800000000162 103.7900000000162 103.8000000000162 103.8100000000162 103.8200000000162 103.8300000000162 103.8400000000162 103.8500000000162 103.8600000000162 103.8700000000162 103.8800000000162 103.8900000000162 103.9000000000162 103.9100000000163 103.9200000000163 103.9300000000163 103.9400000000163 103.9500000000163 103.9600000000163 103.9700000000163 103.9800000000163 103.9900000000163 104.0000000000163 104.0100000000163 104.0200000000163 104.0300000000163 104.0400000000163 104.0500000000163 104.0600000000163 104.0700000000163 104.0800000000163 104.0900000000163 104.1000000000164 104.1100000000164 104.1200000000164 104.1300000000164 104.1400000000164 104.1500000000164 104.1600000000164 104.1700000000164 104.1800000000164 104.1900000000164 104.2000000000164 104.2100000000164 104.2200000000164 104.2300000000164 104.2400000000164 104.2500000000164 104.2600000000164 104.2700000000164 104.2800000000164 104.2900000000164 104.3000000000165 104.3100000000165 104.3200000000165 104.3300000000165 104.3400000000165 104.3500000000165 104.3600000000165 104.3700000000165 104.3800000000165 104.3900000000165 104.4000000000165 104.4100000000165 104.4200000000165 104.4300000000165 104.4400000000165 104.4500000000165 104.4600000000165 104.4700000000165 104.4800000000165 104.4900000000166 104.5000000000166 104.5100000000166 104.5200000000166 104.5300000000166 104.5400000000166 104.5500000000166 104.5600000000166 104.5700000000166 104.5800000000166 104.5900000000166 104.6000000000166 104.6100000000166 104.6200000000166 104.6300000000166 104.6400000000166 104.6500000000166 104.6600000000166 104.6700000000166 104.6800000000166 104.6900000000167 104.7000000000167 104.7100000000167 104.7200000000167 104.7300000000167 104.7400000000167 104.7500000000167 104.7600000000167 104.7700000000167 104.7800000000167 104.7900000000167 104.8000000000167 104.8100000000167 104.8200000000167 104.8300000000167 104.8400000000167 104.8500000000167 104.8600000000167 104.8700000000167 104.8800000000168 104.8900000000168 104.9000000000168 104.9100000000168 104.9200000000168 104.9300000000168 104.9400000000168 104.9500000000168 104.9600000000168 104.9700000000168 104.9800000000168 104.9900000000168 105.0000000000168 105.0100000000168 105.0200000000168 105.0300000000168 105.0400000000168 105.0500000000168 105.0600000000168 105.0700000000168 105.0800000000169 105.0900000000169 105.1000000000169 105.1100000000169 105.1200000000169 105.1300000000169 105.1400000000169 105.1500000000169 105.1600000000169 105.1700000000169 105.1800000000169 105.1900000000169 105.2000000000169 105.2100000000169 105.2200000000169 105.2300000000169 105.2400000000169 105.2500000000169 105.2600000000169 105.2700000000169 105.280000000017 105.290000000017 105.300000000017 105.310000000017 105.320000000017 105.330000000017 105.340000000017 105.350000000017 105.360000000017 105.370000000017 105.380000000017 105.390000000017 105.400000000017 105.410000000017 105.420000000017 105.430000000017 105.440000000017 105.450000000017 105.460000000017 105.4700000000171 105.4800000000171 105.4900000000171 105.5000000000171 105.5100000000171 105.5200000000171 105.5300000000171 105.5400000000171 105.5500000000171 105.5600000000171 105.5700000000171 105.5800000000171 105.5900000000171 105.6000000000171 105.6100000000171 105.6200000000171 105.6300000000171 105.6400000000171 105.6500000000171 105.6600000000171 105.6700000000172 105.6800000000172 105.6900000000172 105.7000000000172 105.7100000000172 105.7200000000172 105.7300000000172 105.7400000000172 105.7500000000172 105.7600000000172 105.7700000000172 105.7800000000172 105.7900000000172 105.8000000000172 105.8100000000172 105.8200000000172 105.8300000000172 105.8400000000172 105.8500000000172 105.8600000000173 105.8700000000173 105.8800000000173 105.8900000000173 105.9000000000173 105.9100000000173 105.9200000000173 105.9300000000173 105.9400000000173 105.9500000000173 105.9600000000173 105.9700000000173 105.9800000000173 105.9900000000173 106.0000000000173 106.0100000000173 106.0200000000173 106.0300000000173 106.0400000000173 106.0500000000173 106.0600000000174 106.0700000000174 106.0800000000174 106.0900000000174 106.1000000000174 106.1100000000174 106.1200000000174 106.1300000000174 106.1400000000174 106.1500000000174 106.1600000000174 106.1700000000174 106.1800000000174 106.1900000000174 106.2000000000174 106.2100000000174 106.2200000000174 106.2300000000174 106.2400000000174 106.2500000000175 106.2600000000175 106.2700000000175 106.2800000000175 106.2900000000175 106.3000000000175 106.3100000000175 106.3200000000175 106.3300000000175 106.3400000000175 106.3500000000175 106.3600000000175 106.3700000000175 106.3800000000175 106.3900000000175 106.4000000000175 106.4100000000175 106.4200000000175 106.4300000000175 106.4400000000175 106.4500000000176 106.4600000000176 106.4700000000176 106.4800000000176 106.4900000000176 106.5000000000176 106.5100000000176 106.5200000000176 106.5300000000176 106.5400000000176 106.5500000000176 106.5600000000176 106.5700000000176 106.5800000000176 106.5900000000176 106.6000000000176 106.6100000000176 106.6200000000176 106.6300000000176 106.6400000000177 106.6500000000177 106.6600000000177 106.6700000000177 106.6800000000177 106.6900000000177 106.7000000000177 106.7100000000177 106.7200000000177 106.7300000000177 106.7400000000177 106.7500000000177 106.7600000000177 106.7700000000177 106.7800000000177 106.7900000000177 106.8000000000177 106.8100000000177 106.8200000000177 106.8300000000177 106.8400000000178 106.8500000000178 106.8600000000178 106.8700000000178 106.8800000000178 106.8900000000178 106.9000000000178 106.9100000000178 106.9200000000178 106.9300000000178 106.9400000000178 106.9500000000178 106.9600000000178 106.9700000000178 106.9800000000178 106.9900000000178 107.0000000000178 107.0100000000178 107.0200000000178 107.0300000000178 107.0400000000179 107.0500000000179 107.0600000000179 107.0700000000179 107.0800000000179 107.0900000000179 107.1000000000179 107.1100000000179 107.1200000000179 107.1300000000179 107.1400000000179 107.1500000000179 107.1600000000179 107.1700000000179 107.1800000000179 107.1900000000179 107.2000000000179 107.2100000000179 107.2200000000179 107.230000000018 107.240000000018 107.250000000018 107.260000000018 107.270000000018 107.280000000018 107.290000000018 107.300000000018 107.310000000018 107.320000000018 107.330000000018 107.340000000018 107.350000000018 107.360000000018 107.370000000018 107.380000000018 107.390000000018 107.400000000018 107.410000000018 107.420000000018 107.4300000000181 107.4400000000181 107.4500000000181 107.4600000000181 107.4700000000181 107.4800000000181 107.4900000000181 107.5000000000181 107.5100000000181 107.5200000000181 107.5300000000181 107.5400000000181 107.5500000000181 107.5600000000181 107.5700000000181 107.5800000000181 107.5900000000181 107.6000000000181 107.6100000000181 107.6200000000182 107.6300000000182 107.6400000000182 107.6500000000182 107.6600000000182 107.6700000000182 107.6800000000182 107.6900000000182 107.7000000000182 107.7100000000182 107.7200000000182 107.7300000000182 107.7400000000182 107.7500000000182 107.7600000000182 107.7700000000182 107.7800000000182 107.7900000000182 107.8000000000182 107.8100000000182 107.8200000000183 107.8300000000183 107.8400000000183 107.8500000000183 107.8600000000183 107.8700000000183 107.8800000000183 107.8900000000183 107.9000000000183 107.9100000000183 107.9200000000183 107.9300000000183 107.9400000000183 107.9500000000183 107.9600000000183 107.9700000000183 107.9800000000183 107.9900000000183 108.0000000000183 108.0100000000184 108.0200000000184 108.0300000000184 108.0400000000184 108.0500000000184 108.0600000000184 108.0700000000184 108.0800000000184 108.0900000000184 108.1000000000184 108.1100000000184 108.1200000000184 108.1300000000184 108.1400000000184 108.1500000000184 108.1600000000184 108.1700000000184 108.1800000000184 108.1900000000184 108.2000000000184 108.2100000000185 108.2200000000185 108.2300000000185 108.2400000000185 108.2500000000185 108.2600000000185 108.2700000000185 108.2800000000185 108.2900000000185 108.3000000000185 108.3100000000185 108.3200000000185 108.3300000000185 108.3400000000185 108.3500000000185 108.3600000000185 108.3700000000185 108.3800000000185 108.3900000000185 108.4000000000186 108.4100000000186 108.4200000000186 108.4300000000186 108.4400000000186 108.4500000000186 108.4600000000186 108.4700000000186 108.4800000000186 108.4900000000186 108.5000000000186 108.5100000000186 108.5200000000186 108.5300000000186 108.5400000000186 108.5500000000186 108.5600000000186 108.5700000000186 108.5800000000186 108.5900000000186 108.6000000000187 108.6100000000187 108.6200000000187 108.6300000000187 108.6400000000187 108.6500000000187 108.6600000000187 108.6700000000187 108.6800000000187 108.6900000000187 108.7000000000187 108.7100000000187 108.7200000000187 108.7300000000187 108.7400000000187 108.7500000000187 108.7600000000187 108.7700000000187 108.7800000000187 108.7900000000188 108.8000000000188 108.8100000000188 108.8200000000188 108.8300000000188 108.8400000000188 108.8500000000188 108.8600000000188 108.8700000000188 108.8800000000188 108.8900000000188 108.9000000000188 108.9100000000188 108.9200000000188 108.9300000000188 108.9400000000188 108.9500000000188 108.9600000000188 108.9700000000188 108.9800000000188 108.9900000000189 109.0000000000189 109.0100000000189 109.0200000000189 109.0300000000189 109.0400000000189 109.0500000000189 109.0600000000189 109.0700000000189 109.0800000000189 109.0900000000189 109.1000000000189 109.1100000000189 109.1200000000189 109.1300000000189 109.1400000000189 109.1500000000189 109.1600000000189 109.1700000000189 109.1800000000189 109.190000000019 109.200000000019 109.210000000019 109.220000000019 109.230000000019 109.240000000019 109.250000000019 109.260000000019 109.270000000019 109.280000000019 109.290000000019 109.300000000019 109.310000000019 109.320000000019 109.330000000019 109.340000000019 109.350000000019 109.360000000019 109.370000000019 109.3800000000191 109.3900000000191 109.4000000000191 109.4100000000191 109.4200000000191 109.4300000000191 109.4400000000191 109.4500000000191 109.4600000000191 109.4700000000191 109.4800000000191 109.4900000000191 109.5000000000191 109.5100000000191 109.5200000000191 109.5300000000191 109.5400000000191 109.5500000000191 109.5600000000191 109.5700000000191 109.5800000000192 109.5900000000192 109.6000000000192 109.6100000000192 109.6200000000192 109.6300000000192 109.6400000000192 109.6500000000192 109.6600000000192 109.6700000000192 109.6800000000192 109.6900000000192 109.7000000000192 109.7100000000192 109.7200000000192 109.7300000000192 109.7400000000192 109.7500000000192 109.7600000000192 109.7700000000193 109.7800000000193 109.7900000000193 109.8000000000193 109.8100000000193 109.8200000000193 109.8300000000193 109.8400000000193 109.8500000000193 109.8600000000193 109.8700000000193 109.8800000000193 109.8900000000193 109.9000000000193 109.9100000000193 109.9200000000193 109.9300000000193 109.9400000000193 109.9500000000193 109.9600000000193 109.9700000000194 109.9800000000194 109.9900000000194 110.0000000000194 110.0100000000194 110.0200000000194 110.0300000000194 110.0400000000194 110.0500000000194 110.0600000000194 110.0700000000194 110.0800000000194 110.0900000000194 110.1000000000194 110.1100000000194 110.1200000000194 110.1300000000194 110.1400000000194 110.1500000000194 110.1600000000195 110.1700000000195 110.1800000000195 110.1900000000195 110.2000000000195 110.2100000000195 110.2200000000195 110.2300000000195 110.2400000000195 110.2500000000195 110.2600000000195 110.2700000000195 110.2800000000195 110.2900000000195 110.3000000000195 110.3100000000195 110.3200000000195 110.3300000000195 110.3400000000195 110.3500000000195 110.3600000000196 110.3700000000196 110.3800000000196 110.3900000000196 110.4000000000196 110.4100000000196 110.4200000000196 110.4300000000196 110.4400000000196 110.4500000000196 110.4600000000196 110.4700000000196 110.4800000000196 110.4900000000196 110.5000000000196 110.5100000000196 110.5200000000196 110.5300000000196 110.5400000000196 110.5500000000197 110.5600000000197 110.5700000000197 110.5800000000197 110.5900000000197 110.6000000000197 110.6100000000197 110.6200000000197 110.6300000000197 110.6400000000197 110.6500000000197 110.6600000000197 110.6700000000197 110.6800000000197 110.6900000000197 110.7000000000197 110.7100000000197 110.7200000000197 110.7300000000197 110.7400000000197 110.7500000000198 110.7600000000198 110.7700000000198 110.7800000000198 110.7900000000198 110.8000000000198 110.8100000000198 110.8200000000198 110.8300000000198 110.8400000000198 110.8500000000198 110.8600000000198 110.8700000000198 110.8800000000198 110.8900000000198 110.9000000000198 110.9100000000198 110.9200000000198 110.9300000000198 110.9400000000199 110.9500000000199 110.9600000000199 110.9700000000199 110.9800000000199 110.9900000000199 111.0000000000199 111.0100000000199 111.0200000000199 111.0300000000199 111.0400000000199 111.0500000000199 111.0600000000199 111.0700000000199 111.0800000000199 111.0900000000199 111.1000000000199 111.1100000000199 111.1200000000199 111.1300000000199 111.14000000002 111.15000000002 111.16000000002 111.17000000002 111.18000000002 111.19000000002 111.20000000002 111.21000000002 111.22000000002 111.23000000002 111.24000000002 111.25000000002 111.26000000002 111.27000000002 111.28000000002 111.29000000002 111.30000000002 111.31000000002 111.32000000002 111.33000000002 111.3400000000201 111.3500000000201 111.3600000000201 111.3700000000201 111.3800000000201 111.3900000000201 111.4000000000201 111.4100000000201 111.4200000000201 111.4300000000201 111.4400000000201 111.4500000000201 111.4600000000201 111.4700000000201 111.4800000000201 111.4900000000201 111.5000000000201 111.5100000000201 111.5200000000201 111.5300000000202 111.5400000000202 111.5500000000202 111.5600000000202 111.5700000000202 111.5800000000202 111.5900000000202 111.6000000000202 111.6100000000202 111.6200000000202 111.6300000000202 111.6400000000202 111.6500000000202 111.6600000000202 111.6700000000202 111.6800000000202 111.6900000000202 111.7000000000202 111.7100000000202 111.7200000000202 111.7300000000203 111.7400000000203 111.7500000000203 111.7600000000203 111.7700000000203 111.7800000000203 111.7900000000203 111.8000000000203 111.8100000000203 111.8200000000203 111.8300000000203 111.8400000000203 111.8500000000203 111.8600000000203 111.8700000000203 111.8800000000203 111.8900000000203 111.9000000000203 111.9100000000203 111.9200000000204 111.9300000000204 111.9400000000204 111.9500000000204 111.9600000000204 111.9700000000204 111.9800000000204 111.9900000000204 112.0000000000204 112.0100000000204 112.0200000000204 112.0300000000204 112.0400000000204 112.0500000000204 112.0600000000204 112.0700000000204 112.0800000000204 112.0900000000204 112.1000000000204 112.1100000000204 112.1200000000205 112.1300000000205 112.1400000000205 112.1500000000205 112.1600000000205 112.1700000000205 112.1800000000205 112.1900000000205 112.2000000000205 112.2100000000205 112.2200000000205 112.2300000000205 112.2400000000205 112.2500000000205 112.2600000000205 112.2700000000205 112.2800000000205 112.2900000000205 112.3000000000205 112.3100000000206 112.3200000000206 112.3300000000206 112.3400000000206 112.3500000000206 112.3600000000206 112.3700000000206 112.3800000000206 112.3900000000206 112.4000000000206 112.4100000000206 112.4200000000206 112.4300000000206 112.4400000000206 112.4500000000206 112.4600000000206 112.4700000000206 112.4800000000206 112.4900000000206 112.5000000000206 112.5100000000207 112.5200000000207 112.5300000000207 112.5400000000207 112.5500000000207 112.5600000000207 112.5700000000207 112.5800000000207 112.5900000000207 112.6000000000207 112.6100000000207 112.6200000000207 112.6300000000207 112.6400000000207 112.6500000000207 112.6600000000207 112.6700000000207 112.6800000000207 112.6900000000207 112.7000000000208 112.7100000000208 112.7200000000208 112.7300000000208 112.7400000000208 112.7500000000208 112.7600000000208 112.7700000000208 112.7800000000208 112.7900000000208 112.8000000000208 112.8100000000208 112.8200000000208 112.8300000000208 112.8400000000208 112.8500000000208 112.8600000000208 112.8700000000208 112.8800000000208 112.8900000000208 112.9000000000209 112.9100000000209 112.9200000000209 112.9300000000209 112.9400000000209 112.9500000000209 112.9600000000209 112.9700000000209 112.9800000000209 112.9900000000209 113.0000000000209 113.0100000000209 113.0200000000209 113.0300000000209 113.0400000000209 113.0500000000209 113.0600000000209 113.0700000000209 113.0800000000209 113.090000000021 113.100000000021 113.110000000021 113.120000000021 113.130000000021 113.140000000021 113.150000000021 113.160000000021 113.170000000021 113.180000000021 113.190000000021 113.200000000021 113.210000000021 113.220000000021 113.230000000021 113.240000000021 113.250000000021 113.260000000021 113.270000000021 113.280000000021 113.2900000000211 113.3000000000211 113.3100000000211 113.3200000000211 113.3300000000211 113.3400000000211 113.3500000000211 113.3600000000211 113.3700000000211 113.3800000000211 113.3900000000211 113.4000000000211 113.4100000000211 113.4200000000211 113.4300000000211 113.4400000000211 113.4500000000211 113.4600000000211 113.4700000000211 113.4800000000211 113.4900000000212 113.5000000000212 113.5100000000212 113.5200000000212 113.5300000000212 113.5400000000212 113.5500000000212 113.5600000000212 113.5700000000212 113.5800000000212 113.5900000000212 113.6000000000212 113.6100000000212 113.6200000000212 113.6300000000212 113.6400000000212 113.6500000000212 113.6600000000212 113.6700000000212 113.6800000000213 113.6900000000213 113.7000000000213 113.7100000000213 113.7200000000213 113.7300000000213 113.7400000000213 113.7500000000213 113.7600000000213 113.7700000000213 113.7800000000213 113.7900000000213 113.8000000000213 113.8100000000213 113.8200000000213 113.8300000000213 113.8400000000213 113.8500000000213 113.8600000000213 113.8700000000213 113.8800000000214 113.8900000000214 113.9000000000214 113.9100000000214 113.9200000000214 113.9300000000214 113.9400000000214 113.9500000000214 113.9600000000214 113.9700000000214 113.9800000000214 113.9900000000214 114.0000000000214 114.0100000000214 114.0200000000214 114.0300000000214 114.0400000000214 114.0500000000214 114.0600000000214 114.0700000000215 114.0800000000215 114.0900000000215 114.1000000000215 114.1100000000215 114.1200000000215 114.1300000000215 114.1400000000215 114.1500000000215 114.1600000000215 114.1700000000215 114.1800000000215 114.1900000000215 114.2000000000215 114.2100000000215 114.2200000000215 114.2300000000215 114.2400000000215 114.2500000000215 114.2600000000215 114.2700000000216 114.2800000000216 114.2900000000216 114.3000000000216 114.3100000000216 114.3200000000216 114.3300000000216 114.3400000000216 114.3500000000216 114.3600000000216 114.3700000000216 114.3800000000216 114.3900000000216 114.4000000000216 114.4100000000216 114.4200000000216 114.4300000000216 114.4400000000216 114.4500000000216 114.4600000000217 114.4700000000217 114.4800000000217 114.4900000000217 114.5000000000217 114.5100000000217 114.5200000000217 114.5300000000217 114.5400000000217 114.5500000000217 114.5600000000217 114.5700000000217 114.5800000000217 114.5900000000217 114.6000000000217 114.6100000000217 114.6200000000217 114.6300000000217 114.6400000000217 114.6500000000217 114.6600000000218 114.6700000000218 114.6800000000218 114.6900000000218 114.7000000000218 114.7100000000218 114.7200000000218 114.7300000000218 114.7400000000218 114.7500000000218 114.7600000000218 114.7700000000218 114.7800000000218 114.7900000000218 114.8000000000218 114.8100000000218 114.8200000000218 114.8300000000218 114.8400000000218 114.8500000000219 114.8600000000219 114.8700000000219 114.8800000000219 114.8900000000219 114.9000000000219 114.9100000000219 114.9200000000219 114.9300000000219 114.9400000000219 114.9500000000219 114.9600000000219 114.9700000000219 114.9800000000219 114.9900000000219 115.0000000000219 115.0100000000219 115.0200000000219 115.0300000000219 115.0400000000219 115.050000000022 115.060000000022 115.070000000022 115.080000000022 115.090000000022 115.100000000022 115.110000000022 115.120000000022 115.130000000022 115.140000000022 115.150000000022 115.160000000022 115.170000000022 115.180000000022 115.190000000022 115.200000000022 115.210000000022 115.220000000022 115.230000000022 115.2400000000221 115.2500000000221 115.2600000000221 115.2700000000221 115.2800000000221 115.2900000000221 115.3000000000221 115.3100000000221 115.3200000000221 115.3300000000221 115.3400000000221 115.3500000000221 115.3600000000221 115.3700000000221 115.3800000000221 115.3900000000221 115.4000000000221 115.4100000000221 115.4200000000221 115.4300000000221 115.4400000000222 115.4500000000222 115.4600000000222 115.4700000000222 115.4800000000222 115.4900000000222 115.5000000000222 115.5100000000222 115.5200000000222 115.5300000000222 115.5400000000222 115.5500000000222 115.5600000000222 115.5700000000222 115.5800000000222 115.5900000000222 115.6000000000222 115.6100000000222 115.6200000000222 115.6300000000222 115.6400000000223 115.6500000000223 115.6600000000223 115.6700000000223 115.6800000000223 115.6900000000223 115.7000000000223 115.7100000000223 115.7200000000223 115.7300000000223 115.7400000000223 115.7500000000223 115.7600000000223 115.7700000000223 115.7800000000223 115.7900000000223 115.8000000000223 115.8100000000223 115.8200000000223 115.8300000000224 115.8400000000224 115.8500000000224 115.8600000000224 115.8700000000224 115.8800000000224 115.8900000000224 115.9000000000224 115.9100000000224 115.9200000000224 115.9300000000224 115.9400000000224 115.9500000000224 115.9600000000224 115.9700000000224 115.9800000000224 115.9900000000224 116.0000000000224 116.0100000000224 116.0200000000224 116.0300000000225 116.0400000000225 116.0500000000225 116.0600000000225 116.0700000000225 116.0800000000225 116.0900000000225 116.1000000000225 116.1100000000225 116.1200000000225 116.1300000000225 116.1400000000225 116.1500000000225 116.1600000000225 116.1700000000225 116.1800000000225 116.1900000000225 116.2000000000225 116.2100000000225 116.2200000000226 116.2300000000226 116.2400000000226 116.2500000000226 116.2600000000226 116.2700000000226 116.2800000000226 116.2900000000226 116.3000000000226 116.3100000000226 116.3200000000226 116.3300000000226 116.3400000000226 116.3500000000226 116.3600000000226 116.3700000000226 116.3800000000226 116.3900000000226 116.4000000000226 116.4100000000226 116.4200000000227 116.4300000000227 116.4400000000227 116.4500000000227 116.4600000000227 116.4700000000227 116.4800000000227 116.4900000000227 116.5000000000227 116.5100000000227 116.5200000000227 116.5300000000227 116.5400000000227 116.5500000000227 116.5600000000227 116.5700000000227 116.5800000000227 116.5900000000227 116.6000000000227 116.6100000000228 116.6200000000228 116.6300000000228 116.6400000000228 116.6500000000228 116.6600000000228 116.6700000000228 116.6800000000228 116.6900000000228 116.7000000000228 116.7100000000228 116.7200000000228 116.7