FORMAT
type: ensight gold

GEOMETRY
model:  1   data/********/geometry

VARIABLE
scalar per element: 1  pCurle          data/********/pCurle

TIME
time set:               1
number of steps:        10001
filename start number:  0
filename increment:     1
time values:
  1.00000e+02  1.00010e+02  1.00020e+02  1.00030e+02  1.00040e+02  1.00050e+02
  1.00060e+02  1.00070e+02  1.00080e+02  1.00090e+02  1.00100e+02  1.00110e+02
  1.00120e+02  1.00130e+02  1.00140e+02  1.00150e+02  1.00160e+02  1.00170e+02
  1.00180e+02  1.00190e+02  1.00200e+02  1.00210e+02  1.00220e+02  1.00230e+02
  1.00240e+02  1.00250e+02  1.00260e+02  1.00270e+02  1.00280e+02  1.00290e+02
  1.00300e+02  1.00310e+02  1.00320e+02  1.00330e+02  1.00340e+02  1.00350e+02
  1.00360e+02  1.00370e+02  1.00380e+02  1.00390e+02  1.00400e+02  1.00410e+02
  1.00420e+02  1.00430e+02  1.00440e+02  1.00450e+02  1.00460e+02  1.00470e+02
  1.00480e+02  1.00490e+02  1.00500e+02  1.00510e+02  1.00520e+02  1.00530e+02
  1.00540e+02  1.00550e+02  1.00560e+02  1.00570e+02  1.00580e+02  1.00590e+02
  1.00600e+02  1.00610e+02  1.00620e+02  1.00630e+02  1.00640e+02  1.00650e+02
  1.00660e+02  1.00670e+02  1.00680e+02  1.00690e+02  1.00700e+02  1.00710e+02
  1.00720e+02  1.00730e+02  1.00740e+02  1.00750e+02  1.00760e+02  1.00770e+02
  1.00780e+02  1.00790e+02  1.00800e+02  1.00810e+02  1.00820e+02  1.00830e+02
  1.00840e+02  1.00850e+02  1.00860e+02  1.00870e+02  1.00880e+02  1.00890e+02
  1.00900e+02  1.00910e+02  1.00920e+02  1.00930e+02  1.00940e+02  1.00950e+02
  1.00960e+02  1.00970e+02  1.00980e+02  1.00990e+02  1.01000e+02  1.01010e+02
  1.01020e+02  1.01030e+02  1.01040e+02  1.01050e+02  1.01060e+02  1.01070e+02
  1.01080e+02  1.01090e+02  1.01100e+02  1.01110e+02  1.01120e+02  1.01130e+02
  1.01140e+02  1.01150e+02  1.01160e+02  1.01170e+02  1.01180e+02  1.01190e+02
  1.01200e+02  1.01210e+02  1.01220e+02  1.01230e+02  1.01240e+02  1.01250e+02
  1.01260e+02  1.01270e+02  1.01280e+02  1.01290e+02  1.01300e+02  1.01310e+02
  1.01320e+02  1.01330e+02  1.01340e+02  1.01350e+02  1.01360e+02  1.01370e+02
  1.01380e+02  1.01390e+02  1.01400e+02  1.01410e+02  1.01420e+02  1.01430e+02
  1.01440e+02  1.01450e+02  1.01460e+02  1.01470e+02  1.01480e+02  1.01490e+02
  1.01500e+02  1.01510e+02  1.01520e+02  1.01530e+02  1.01540e+02  1.01550e+02
  1.01560e+02  1.01570e+02  1.01580e+02  1.01590e+02  1.01600e+02  1.01610e+02
  1.01620e+02  1.01630e+02  1.01640e+02  1.01650e+02  1.01660e+02  1.01670e+02
  1.01680e+02  1.01690e+02  1.01700e+02  1.01710e+02  1.01720e+02  1.01730e+02
  1.01740e+02  1.01750e+02  1.01760e+02  1.01770e+02  1.01780e+02  1.01790e+02
  1.01800e+02  1.01810e+02  1.01820e+02  1.01830e+02  1.01840e+02  1.01850e+02
  1.01860e+02  1.01870e+02  1.01880e+02  1.01890e+02  1.01900e+02  1.01910e+02
  1.01920e+02  1.01930e+02  1.01940e+02  1.01950e+02  1.01960e+02  1.01970e+02
  1.01980e+02  1.01990e+02  1.02000e+02  1.02010e+02  1.02020e+02  1.02030e+02
  1.02040e+02  1.02050e+02  1.02060e+02  1.02070e+02  1.02080e+02  1.02090e+02
  1.02100e+02  1.02110e+02  1.02120e+02  1.02130e+02  1.02140e+02  1.02150e+02
  1.02160e+02  1.02170e+02  1.02180e+02  1.02190e+02  1.02200e+02  1.02210e+02
  1.02220e+02  1.02230e+02  1.02240e+02  1.02250e+02  1.02260e+02  1.02270e+02
  1.02280e+02  1.02290e+02  1.02300e+02  1.02310e+02  1.02320e+02  1.02330e+02
  1.02340e+02  1.02350e+02  1.02360e+02  1.02370e+02  1.02380e+02  1.02390e+02
  1.02400e+02  1.02410e+02  1.02420e+02  1.02430e+02  1.02440e+02  1.02450e+02
  1.02460e+02  1.02470e+02  1.02480e+02  1.02490e+02  1.02500e+02  1.02510e+02
  1.02520e+02  1.02530e+02  1.02540e+02  1.02550e+02  1.02560e+02  1.02570e+02
  1.02580e+02  1.02590e+02  1.02600e+02  1.02610e+02  1.02620e+02  1.02630e+02
  1.02640e+02  1.02650e+02  1.02660e+02  1.02670e+02  1.02680e+02  1.02690e+02
  1.02700e+02  1.02710e+02  1.02720e+02  1.02730e+02  1.02740e+02  1.02750e+02
  1.02760e+02  1.02770e+02  1.02780e+02  1.02790e+02  1.02800e+02  1.02810e+02
  1.02820e+02  1.02830e+02  1.02840e+02  1.02850e+02  1.02860e+02  1.02870e+02
  1.02880e+02  1.02890e+02  1.02900e+02  1.02910e+02  1.02920e+02  1.02930e+02
  1.02940e+02  1.02950e+02  1.02960e+02  1.02970e+02  1.02980e+02  1.02990e+02
  1.03000e+02  1.03010e+02  1.03020e+02  1.03030e+02  1.03040e+02  1.03050e+02
  1.03060e+02  1.03070e+02  1.03080e+02  1.03090e+02  1.03100e+02  1.03110e+02
  1.03120e+02  1.03130e+02  1.03140e+02  1.03150e+02  1.03160e+02  1.03170e+02
  1.03180e+02  1.03190e+02  1.03200e+02  1.03210e+02  1.03220e+02  1.03230e+02
  1.03240e+02  1.03250e+02  1.03260e+02  1.03270e+02  1.03280e+02  1.03290e+02
  1.03300e+02  1.03310e+02  1.03320e+02  1.03330e+02  1.03340e+02  1.03350e+02
  1.03360e+02  1.03370e+02  1.03380e+02  1.03390e+02  1.03400e+02  1.03410e+02
  1.03420e+02  1.03430e+02  1.03440e+02  1.03450e+02  1.03460e+02  1.03470e+02
  1.03480e+02  1.03490e+02  1.03500e+02  1.03510e+02  1.03520e+02  1.03530e+02
  1.03540e+02  1.03550e+02  1.03560e+02  1.03570e+02  1.03580e+02  1.03590e+02
  1.03600e+02  1.03610e+02  1.03620e+02  1.03630e+02  1.03640e+02  1.03650e+02
  1.03660e+02  1.03670e+02  1.03680e+02  1.03690e+02  1.03700e+02  1.03710e+02
  1.03720e+02  1.03730e+02  1.03740e+02  1.03750e+02  1.03760e+02  1.03770e+02
  1.03780e+02  1.03790e+02  1.03800e+02  1.03810e+02  1.03820e+02  1.03830e+02
  1.03840e+02  1.03850e+02  1.03860e+02  1.03870e+02  1.03880e+02  1.03890e+02
  1.03900e+02  1.03910e+02  1.03920e+02  1.03930e+02  1.03940e+02  1.03950e+02
  1.03960e+02  1.03970e+02  1.03980e+02  1.03990e+02  1.04000e+02  1.04010e+02
  1.04020e+02  1.04030e+02  1.04040e+02  1.04050e+02  1.04060e+02  1.04070e+02
  1.04080e+02  1.04090e+02  1.04100e+02  1.04110e+02  1.04120e+02  1.04130e+02
  1.04140e+02  1.04150e+02  1.04160e+02  1.04170e+02  1.04180e+02  1.04190e+02
  1.04200e+02  1.04210e+02  1.04220e+02  1.04230e+02  1.04240e+02  1.04250e+02
  1.04260e+02  1.04270e+02  1.04280e+02  1.04290e+02  1.04300e+02  1.04310e+02
  1.04320e+02  1.04330e+02  1.04340e+02  1.04350e+02  1.04360e+02  1.04370e+02
  1.04380e+02  1.04390e+02  1.04400e+02  1.04410e+02  1.04420e+02  1.04430e+02
  1.04440e+02  1.04450e+02  1.04460e+02  1.04470e+02  1.04480e+02  1.04490e+02
  1.04500e+02  1.04510e+02  1.04520e+02  1.04530e+02  1.04540e+02  1.04550e+02
  1.04560e+02  1.04570e+02  1.04580e+02  1.04590e+02  1.04600e+02  1.04610e+02
  1.04620e+02  1.04630e+02  1.04640e+02  1.04650e+02  1.04660e+02  1.04670e+02
  1.04680e+02  1.04690e+02  1.04700e+02  1.04710e+02  1.04720e+02  1.04730e+02
  1.04740e+02  1.04750e+02  1.04760e+02  1.04770e+02  1.04780e+02  1.04790e+02
  1.04800e+02  1.04810e+02  1.04820e+02  1.04830e+02  1.04840e+02  1.04850e+02
  1.04860e+02  1.04870e+02  1.04880e+02  1.04890e+02  1.04900e+02  1.04910e+02
  1.04920e+02  1.04930e+02  1.04940e+02  1.04950e+02  1.04960e+02  1.04970e+02
  1.04980e+02  1.04990e+02  1.05000e+02  1.05010e+02  1.05020e+02  1.05030e+02
  1.05040e+02  1.05050e+02  1.05060e+02  1.05070e+02  1.05080e+02  1.05090e+02
  1.05100e+02  1.05110e+02  1.05120e+02  1.05130e+02  1.05140e+02  1.05150e+02
  1.05160e+02  1.05170e+02  1.05180e+02  1.05190e+02  1.05200e+02  1.05210e+02
  1.05220e+02  1.05230e+02  1.05240e+02  1.05250e+02  1.05260e+02  1.05270e+02
  1.05280e+02  1.05290e+02  1.05300e+02  1.05310e+02  1.05320e+02  1.05330e+02
  1.05340e+02  1.05350e+02  1.05360e+02  1.05370e+02  1.05380e+02  1.05390e+02
  1.05400e+02  1.05410e+02  1.05420e+02  1.05430e+02  1.05440e+02  1.05450e+02
  1.05460e+02  1.05470e+02  1.05480e+02  1.05490e+02  1.05500e+02  1.05510e+02
  1.05520e+02  1.05530e+02  1.05540e+02  1.05550e+02  1.05560e+02  1.05570e+02
  1.05580e+02  1.05590e+02  1.05600e+02  1.05610e+02  1.05620e+02  1.05630e+02
  1.05640e+02  1.05650e+02  1.05660e+02  1.05670e+02  1.05680e+02  1.05690e+02
  1.05700e+02  1.05710e+02  1.05720e+02  1.05730e+02  1.05740e+02  1.05750e+02
  1.05760e+02  1.05770e+02  1.05780e+02  1.05790e+02  1.05800e+02  1.05810e+02
  1.05820e+02  1.05830e+02  1.05840e+02  1.05850e+02  1.05860e+02  1.05870e+02
  1.05880e+02  1.05890e+02  1.05900e+02  1.05910e+02  1.05920e+02  1.05930e+02
  1.05940e+02  1.05950e+02  1.05960e+02  1.05970e+02  1.05980e+02  1.05990e+02
  1.06000e+02  1.06010e+02  1.06020e+02  1.06030e+02  1.06040e+02  1.06050e+02
  1.06060e+02  1.06070e+02  1.06080e+02  1.06090e+02  1.06100e+02  1.06110e+02
  1.06120e+02  1.06130e+02  1.06140e+02  1.06150e+02  1.06160e+02  1.06170e+02
  1.06180e+02  1.06190e+02  1.06200e+02  1.06210e+02  1.06220e+02  1.06230e+02
  1.06240e+02  1.06250e+02  1.06260e+02  1.06270e+02  1.06280e+02  1.06290e+02
  1.06300e+02  1.06310e+02  1.06320e+02  1.06330e+02  1.06340e+02  1.06350e+02
  1.06360e+02  1.06370e+02  1.06380e+02  1.06390e+02  1.06400e+02  1.06410e+02
  1.06420e+02  1.06430e+02  1.06440e+02  1.06450e+02  1.06460e+02  1.06470e+02
  1.06480e+02  1.06490e+02  1.06500e+02  1.06510e+02  1.06520e+02  1.06530e+02
  1.06540e+02  1.06550e+02  1.06560e+02  1.06570e+02  1.06580e+02  1.06590e+02
  1.06600e+02  1.06610e+02  1.06620e+02  1.06630e+02  1.06640e+02  1.06650e+02
  1.06660e+02  1.06670e+02  1.06680e+02  1.06690e+02  1.06700e+02  1.06710e+02
  1.06720e+02  1.06730e+02  1.06740e+02  1.06750e+02  1.06760e+02  1.06770e+02
  1.06780e+02  1.06790e+02  1.06800e+02  1.06810e+02  1.06820e+02  1.06830e+02
  1.06840e+02  1.06850e+02  1.06860e+02  1.06870e+02  1.06880e+02  1.06890e+02
  1.06900e+02  1.06910e+02  1.06920e+02  1.06930e+02  1.06940e+02  1.06950e+02
  1.06960e+02  1.06970e+02  1.06980e+02  1.06990e+02  1.07000e+02  1.07010e+02
  1.07020e+02  1.07030e+02  1.07040e+02  1.07050e+02  1.07060e+02  1.07070e+02
  1.07080e+02  1.07090e+02  1.07100e+02  1.07110e+02  1.07120e+02  1.07130e+02
  1.07140e+02  1.07150e+02  1.07160e+02  1.07170e+02  1.07180e+02  1.07190e+02
  1.07200e+02  1.07210e+02  1.07220e+02  1.07230e+02  1.07240e+02  1.07250e+02
  1.07260e+02  1.07270e+02  1.07280e+02  1.07290e+02  1.07300e+02  1.07310e+02
  1.07320e+02  1.07330e+02  1.07340e+02  1.07350e+02  1.07360e+02  1.07370e+02
  1.07380e+02  1.07390e+02  1.07400e+02  1.07410e+02  1.07420e+02  1.07430e+02
  1.07440e+02  1.07450e+02  1.07460e+02  1.07470e+02  1.07480e+02  1.07490e+02
  1.07500e+02  1.07510e+02  1.07520e+02  1.07530e+02  1.07540e+02  1.07550e+02
  1.07560e+02  1.07570e+02  1.07580e+02  1.07590e+02  1.07600e+02  1.07610e+02
  1.07620e+02  1.07630e+02  1.07640e+02  1.07650e+02  1.07660e+02  1.07670e+02
  1.07680e+02  1.07690e+02  1.07700e+02  1.07710e+02  1.07720e+02  1.07730e+02
  1.07740e+02  1.07750e+02  1.07760e+02  1.07770e+02  1.07780e+02  1.07790e+02
  1.07800e+02  1.07810e+02  1.07820e+02  1.07830e+02  1.07840e+02  1.07850e+02
  1.07860e+02  1.07870e+02  1.07880e+02  1.07890e+02  1.07900e+02  1.07910e+02
  1.07920e+02  1.07930e+02  1.07940e+02  1.07950e+02  1.07960e+02  1.07970e+02
  1.07980e+02  1.07990e+02  1.08000e+02  1.08010e+02  1.08020e+02  1.08030e+02
  1.08040e+02  1.08050e+02  1.08060e+02  1.08070e+02  1.08080e+02  1.08090e+02
  1.08100e+02  1.08110e+02  1.08120e+02  1.08130e+02  1.08140e+02  1.08150e+02
  1.08160e+02  1.08170e+02  1.08180e+02  1.08190e+02  1.08200e+02  1.08210e+02
  1.08220e+02  1.08230e+02  1.08240e+02  1.08250e+02  1.08260e+02  1.08270e+02
  1.08280e+02  1.08290e+02  1.08300e+02  1.08310e+02  1.08320e+02  1.08330e+02
  1.08340e+02  1.08350e+02  1.08360e+02  1.08370e+02  1.08380e+02  1.08390e+02
  1.08400e+02  1.08410e+02  1.08420e+02  1.08430e+02  1.08440e+02  1.08450e+02
  1.08460e+02  1.08470e+02  1.08480e+02  1.08490e+02  1.08500e+02  1.08510e+02
  1.08520e+02  1.08530e+02  1.08540e+02  1.08550e+02  1.08560e+02  1.08570e+02
  1.08580e+02  1.08590e+02  1.08600e+02  1.08610e+02  1.08620e+02  1.08630e+02
  1.08640e+02  1.08650e+02  1.08660e+02  1.08670e+02  1.08680e+02  1.08690e+02
  1.08700e+02  1.08710e+02  1.08720e+02  1.08730e+02  1.08740e+02  1.08750e+02
  1.08760e+02  1.08770e+02  1.08780e+02  1.08790e+02  1.08800e+02  1.08810e+02
  1.08820e+02  1.08830e+02  1.08840e+02  1.08850e+02  1.08860e+02  1.08870e+02
  1.08880e+02  1.08890e+02  1.08900e+02  1.08910e+02  1.08920e+02  1.08930e+02
  1.08940e+02  1.08950e+02  1.08960e+02  1.08970e+02  1.08980e+02  1.08990e+02
  1.09000e+02  1.09010e+02  1.09020e+02  1.09030e+02  1.09040e+02  1.09050e+02
  1.09060e+02  1.09070e+02  1.09080e+02  1.09090e+02  1.09100e+02  1.09110e+02
  1.09120e+02  1.09130e+02  1.09140e+02  1.09150e+02  1.09160e+02  1.09170e+02
  1.09180e+02  1.09190e+02  1.09200e+02  1.09210e+02  1.09220e+02  1.09230e+02
  1.09240e+02  1.09250e+02  1.09260e+02  1.09270e+02  1.09280e+02  1.09290e+02
  1.09300e+02  1.09310e+02  1.09320e+02  1.09330e+02  1.09340e+02  1.09350e+02
  1.09360e+02  1.09370e+02  1.09380e+02  1.09390e+02  1.09400e+02  1.09410e+02
  1.09420e+02  1.09430e+02  1.09440e+02  1.09450e+02  1.09460e+02  1.09470e+02
  1.09480e+02  1.09490e+02  1.09500e+02  1.09510e+02  1.09520e+02  1.09530e+02
  1.09540e+02  1.09550e+02  1.09560e+02  1.09570e+02  1.09580e+02  1.09590e+02
  1.09600e+02  1.09610e+02  1.09620e+02  1.09630e+02  1.09640e+02  1.09650e+02
  1.09660e+02  1.09670e+02  1.09680e+02  1.09690e+02  1.09700e+02  1.09710e+02
  1.09720e+02  1.09730e+02  1.09740e+02  1.09750e+02  1.09760e+02  1.09770e+02
  1.09780e+02  1.09790e+02  1.09800e+02  1.09810e+02  1.09820e+02  1.09830e+02
  1.09840e+02  1.09850e+02  1.09860e+02  1.09870e+02  1.09880e+02  1.09890e+02
  1.09900e+02  1.09910e+02  1.09920e+02  1.09930e+02  1.09940e+02  1.09950e+02
  1.09960e+02  1.09970e+02  1.09980e+02  1.09990e+02  1.10000e+02  1.10010e+02
  1.10020e+02  1.10030e+02  1.10040e+02  1.10050e+02  1.10060e+02  1.10070e+02
  1.10080e+02  1.10090e+02  1.10100e+02  1.10110e+02  1.10120e+02  1.10130e+02
  1.10140e+02  1.10150e+02  1.10160e+02  1.10170e+02  1.10180e+02  1.10190e+02
  1.10200e+02  1.10210e+02  1.10220e+02  1.10230e+02  1.10240e+02  1.10250e+02
  1.10260e+02  1.10270e+02  1.10280e+02  1.10290e+02  1.10300e+02  1.10310e+02
  1.10320e+02  1.10330e+02  1.10340e+02  1.10350e+02  1.10360e+02  1.10370e+02
  1.10380e+02  1.10390e+02  1.10400e+02  1.10410e+02  1.10420e+02  1.10430e+02
  1.10440e+02  1.10450e+02  1.10460e+02  1.10470e+02  1.10480e+02  1.10490e+02
  1.10500e+02  1.10510e+02  1.10520e+02  1.10530e+02  1.10540e+02  1.10550e+02
  1.10560e+02  1.10570e+02  1.10580e+02  1.10590e+02  1.10600e+02  1.10610e+02
  1.10620e+02  1.10630e+02  1.10640e+02  1.10650e+02  1.10660e+02  1.10670e+02
  1.10680e+02  1.10690e+02  1.10700e+02  1.10710e+02  1.10720e+02  1.10730e+02
  1.10740e+02  1.10750e+02  1.10760e+02  1.10770e+02  1.10780e+02  1.10790e+02
  1.10800e+02  1.10810e+02  1.10820e+02  1.10830e+02  1.10840e+02  1.10850e+02
  1.10860e+02  1.10870e+02  1.10880e+02  1.10890e+02  1.10900e+02  1.10910e+02
  1.10920e+02  1.10930e+02  1.10940e+02  1.10950e+02  1.10960e+02  1.10970e+02
  1.10980e+02  1.10990e+02  1.11000e+02  1.11010e+02  1.11020e+02  1.11030e+02
  1.11040e+02  1.11050e+02  1.11060e+02  1.11070e+02  1.11080e+02  1.11090e+02
  1.11100e+02  1.11110e+02  1.11120e+02  1.11130e+02  1.11140e+02  1.11150e+02
  1.11160e+02  1.11170e+02  1.11180e+02  1.11190e+02  1.11200e+02  1.11210e+02
  1.11220e+02  1.11230e+02  1.11240e+02  1.11250e+02  1.11260e+02  1.11270e+02
  1.11280e+02  1.11290e+02  1.11300e+02  1.11310e+02  1.11320e+02  1.11330e+02
  1.11340e+02  1.11350e+02  1.11360e+02  1.11370e+02  1.11380e+02  1.11390e+02
  1.11400e+02  1.11410e+02  1.11420e+02  1.11430e+02  1.11440e+02  1.11450e+02
  1.11460e+02  1.11470e+02  1.11480e+02  1.11490e+02  1.11500e+02  1.11510e+02
  1.11520e+02  1.11530e+02  1.11540e+02  1.11550e+02  1.11560e+02  1.11570e+02
  1.11580e+02  1.11590e+02  1.11600e+02  1.11610e+02  1.11620e+02  1.11630e+02
  1.11640e+02  1.11650e+02  1.11660e+02  1.11670e+02  1.11680e+02  1.11690e+02
  1.11700e+02  1.11710e+02  1.11720e+02  1.11730e+02  1.11740e+02  1.11750e+02
  1.11760e+02  1.11770e+02  1.11780e+02  1.11790e+02  1.11800e+02  1.11810e+02
  1.11820e+02  1.11830e+02  1.11840e+02  1.11850e+02  1.11860e+02  1.11870e+02
  1.11880e+02  1.11890e+02  1.11900e+02  1.11910e+02  1.11920e+02  1.11930e+02
  1.11940e+02  1.11950e+02  1.11960e+02  1.11970e+02  1.11980e+02  1.11990e+02
  1.12000e+02  1.12010e+02  1.12020e+02  1.12030e+02  1.12040e+02  1.12050e+02
  1.12060e+02  1.12070e+02  1.12080e+02  1.12090e+02  1.12100e+02  1.12110e+02
  1.12120e+02  1.12130e+02  1.12140e+02  1.12150e+02  1.12160e+02  1.12170e+02
  1.12180e+02  1.12190e+02  1.12200e+02  1.12210e+02  1.12220e+02  1.12230e+02
  1.12240e+02  1.12250e+02  1.12260e+02  1.12270e+02  1.12280e+02  1.12290e+02
  1.12300e+02  1.12310e+02  1.12320e+02  1.12330e+02  1.12340e+02  1.12350e+02
  1.12360e+02  1.12370e+02  1.12380e+02  1.12390e+02  1.12400e+02  1.12410e+02
  1.12420e+02  1.12430e+02  1.12440e+02  1.12450e+02  1.12460e+02  1.12470e+02
  1.12480e+02  1.12490e+02  1.12500e+02  1.12510e+02  1.12520e+02  1.12530e+02
  1.12540e+02  1.12550e+02  1.12560e+02  1.12570e+02  1.12580e+02  1.12590e+02
  1.12600e+02  1.12610e+02  1.12620e+02  1.12630e+02  1.12640e+02  1.12650e+02
  1.12660e+02  1.12670e+02  1.12680e+02  1.12690e+02  1.12700e+02  1.12710e+02
  1.12720e+02  1.12730e+02  1.12740e+02  1.12750e+02  1.12760e+02  1.12770e+02
  1.12780e+02  1.12790e+02  1.12800e+02  1.12810e+02  1.12820e+02  1.12830e+02
  1.12840e+02  1.12850e+02  1.12860e+02  1.12870e+02  1.12880e+02  1.12890e+02
  1.12900e+02  1.12910e+02  1.12920e+02  1.12930e+02  1.12940e+02  1.12950e+02
  1.12960e+02  1.12970e+02  1.12980e+02  1.12990e+02  1.13000e+02  1.13010e+02
  1.13020e+02  1.13030e+02  1.13040e+02  1.13050e+02  1.13060e+02  1.13070e+02
  1.13080e+02  1.13090e+02  1.13100e+02  1.13110e+02  1.13120e+02  1.13130e+02
  1.13140e+02  1.13150e+02  1.13160e+02  1.13170e+02  1.13180e+02  1.13190e+02
  1.13200e+02  1.13210e+02  1.13220e+02  1.13230e+02  1.13240e+02  1.13250e+02
  1.13260e+02  1.13270e+02  1.13280e+02  1.13290e+02  1.13300e+02  1.13310e+02
  1.13320e+02  1.13330e+02  1.13340e+02  1.13350e+02  1.13360e+02  1.13370e+02
  1.13380e+02  1.13390e+02  1.13400e+02  1.13410e+02  1.13420e+02  1.13430e+02
  1.13440e+02  1.13450e+02  1.13460e+02  1.13470e+02  1.13480e+02  1.13490e+02
  1.13500e+02  1.13510e+02  1.13520e+02  1.13530e+02  1.13540e+02  1.13550e+02
  1.13560e+02  1.13570e+02  1.13580e+02  1.13590e+02  1.13600e+02  1.13610e+02
  1.13620e+02  1.13630e+02  1.13640e+02  1.13650e+02  1.13660e+02  1.13670e+02
  1.13680e+02  1.13690e+02  1.13700e+02  1.13710e+02  1.13720e+02  1.13730e+02
  1.13740e+02  1.13750e+02  1.13760e+02  1.13770e+02  1.13780e+02  1.13790e+02
  1.13800e+02  1.13810e+02  1.13820e+02  1.13830e+02  1.13840e+02  1.13850e+02
  1.13860e+02  1.13870e+02  1.13880e+02  1.13890e+02  1.13900e+02  1.13910e+02
  1.13920e+02  1.13930e+02  1.13940e+02  1.13950e+02  1.13960e+02  1.13970e+02
  1.13980e+02  1.13990e+02  1.14000e+02  1.14010e+02  1.14020e+02  1.14030e+02
  1.14040e+02  1.14050e+02  1.14060e+02  1.14070e+02  1.14080e+02  1.14090e+02
  1.14100e+02  1.14110e+02  1.14120e+02  1.14130e+02  1.14140e+02  1.14150e+02
  1.14160e+02  1.14170e+02  1.14180e+02  1.14190e+02  1.14200e+02  1.14210e+02
  1.14220e+02  1.14230e+02  1.14240e+02  1.14250e+02  1.14260e+02  1.14270e+02
  1.14280e+02  1.14290e+02  1.14300e+02  1.14310e+02  1.14320e+02  1.14330e+02
  1.14340e+02  1.14350e+02  1.14360e+02  1.14370e+02  1.14380e+02  1.14390e+02
  1.14400e+02  1.14410e+02  1.14420e+02  1.14430e+02  1.14440e+02  1.14450e+02
  1.14460e+02  1.14470e+02  1.14480e+02  1.14490e+02  1.14500e+02  1.14510e+02
  1.14520e+02  1.14530e+02  1.14540e+02  1.14550e+02  1.14560e+02  1.14570e+02
  1.14580e+02  1.14590e+02  1.14600e+02  1.14610e+02  1.14620e+02  1.14630e+02
  1.14640e+02  1.14650e+02  1.14660e+02  1.14670e+02  1.14680e+02  1.14690e+02
  1.14700e+02  1.14710e+02  1.14720e+02  1.14730e+02  1.14740e+02  1.14750e+02
  1.14760e+02  1.14770e+02  1.14780e+02  1.14790e+02  1.14800e+02  1.14810e+02
  1.14820e+02  1.14830e+02  1.14840e+02  1.14850e+02  1.14860e+02  1.14870e+02
  1.14880e+02  1.14890e+02  1.14900e+02  1.14910e+02  1.14920e+02  1.14930e+02
  1.14940e+02  1.14950e+02  1.14960e+02  1.14970e+02  1.14980e+02  1.14990e+02
  1.15000e+02  1.15010e+02  1.15020e+02  1.15030e+02  1.15040e+02  1.15050e+02
  1.15060e+02  1.15070e+02  1.15080e+02  1.15090e+02  1.15100e+02  1.15110e+02
  1.15120e+02  1.15130e+02  1.15140e+02  1.15150e+02  1.15160e+02  1.15170e+02
  1.15180e+02  1.15190e+02  1.15200e+02  1.15210e+02  1.15220e+02  1.15230e+02
  1.15240e+02  1.15250e+02  1.15260e+02  1.15270e+02  1.15280e+02  1.15290e+02
  1.15300e+02  1.15310e+02  1.15320e+02  1.15330e+02  1.15340e+02  1.15350e+02
  1.15360e+02  1.15370e+02  1.15380e+02  1.15390e+02  1.15400e+02  1.15410e+02
  1.15420e+02  1.15430e+02  1.15440e+02  1.15450e+02  1.15460e+02  1.15470e+02
  1.15480e+02  1.15490e+02  1.15500e+02  1.15510e+02  1.15520e+02  1.15530e+02
  1.15540e+02  1.15550e+02  1.15560e+02  1.15570e+02  1.15580e+02  1.15590e+02
  1.15600e+02  1.15610e+02  1.15620e+02  1.15630e+02  1.15640e+02  1.15650e+02
  1.15660e+02  1.15670e+02  1.15680e+02  1.15690e+02  1.15700e+02  1.15710e+02
  1.15720e+02  1.15730e+02  1.15740e+02  1.15750e+02  1.15760e+02  1.15770e+02
  1.15780e+02  1.15790e+02  1.15800e+02  1.15810e+02  1.15820e+02  1.15830e+02
  1.15840e+02  1.15850e+02  1.15860e+02  1.15870e+02  1.15880e+02  1.15890e+02
  1.15900e+02  1.15910e+02  1.15920e+02  1.15930e+02  1.15940e+02  1.15950e+02
  1.15960e+02  1.15970e+02  1.15980e+02  1.15990e+02  1.16000e+02  1.16010e+02
  1.16020e+02  1.16030e+02  1.16040e+02  1.16050e+02  1.16060e+02  1.16070e+02
  1.16080e+02  1.16090e+02  1.16100e+02  1.16110e+02  1.16120e+02  1.16130e+02
  1.16140e+02  1.16150e+02  1.16160e+02  1.16170e+02  1.16180e+02  1.16190e+02
  1.16200e+02  1.16210e+02  1.16220e+02  1.16230e+02  1.16240e+02  1.16250e+02
  1.16260e+02  1.16270e+02  1.16280e+02  1.16290e+02  1.16300e+02  1.16310e+02
  1.16320e+02  1.16330e+02  1.16340e+02  1.16350e+02  1.16360e+02  1.16370e+02
  1.16380e+02  1.16390e+02  1.16400e+02  1.16410e+02  1.16420e+02  1.16430e+02
  1.16440e+02  1.16450e+02  1.16460e+02  1.16470e+02  1.16480e+02  1.16490e+02
  1.16500e+02  1.16510e+02  1.16520e+02  1.16530e+02  1.16540e+02  1.16550e+02
  1.16560e+02  1.16570e+02  1.16580e+02  1.16590e+02  1.16600e+02  1.16610e+02
  1.16620e+02  1.16630e+02  1.16640e+02  1.16650e+02  1.16660e+02  1.16670e+02
  1.16680e+02  1.16690e+02  1.16700e+02  1.16710e+02  1.16720e+02  1.16730e+02
  1.16740e+02  1.16750e+02  1.16760e+02  1.16770e+02  1.16780e+02  1.16790e+02
  1.16800e+02  1.16810e+02  1.16820e+02  1.16830e+02  1.16840e+02  1.16850e+02
  1.16860e+02  1.16870e+02  1.16880e+02  1.16890e+02  1.16900e+02  1.16910e+02
  1.16920e+02  1.16930e+02  1.16940e+02  1.16950e+02  1.16960e+02  1.16970e+02
  1.16980e+02  1.16990e+02  1.17000e+02  1.17010e+02  1.17020e+02  1.17030e+02
  1.17040e+02  1.17050e+02  1.17060e+02  1.17070e+02  1.17080e+02  1.17090e+02
  1.17100e+02  1.17110e+02  1.17120e+02  1.17130e+02  1.17140e+02  1.17150e+02
  1.17160e+02  1.17170e+02  1.17180e+02  1.17190e+02  1.17200e+02  1.17210e+02
  1.17220e+02  1.17230e+02  1.17240e+02  1.17250e+02  1.17260e+02  1.17270e+02
  1.17280e+02  1.17290e+02  1.17300e+02  1.17310e+02  1.17320e+02  1.17330e+02
  1.17340e+02  1.17350e+02  1.17360e+02  1.17370e+02  1.17380e+02  1.17390e+02
  1.17400e+02  1.17410e+02  1.17420e+02  1.17430e+02  1.17440e+02  1.17450e+02
  1.17460e+02  1.17470e+02  1.17480e+02  1.17490e+02  1.17500e+02  1.17510e+02
  1.17520e+02  1.17530e+02  1.17540e+02  1.17550e+02  1.17560e+02  1.17570e+02
  1.17580e+02  1.17590e+02  1.17600e+02  1.17610e+02  1.17620e+02  1.17630e+02
  1.17640e+02  1.17650e+02  1.17660e+02  1.17670e+02  1.17680e+02  1.17690e+02
  1.17700e+02  1.17710e+02  1.17720e+02  1.17730e+02  1.17740e+02  1.17750e+02
  1.17760e+02  1.17770e+02  1.17780e+02  1.17790e+02  1.17800e+02  1.17810e+02
  1.17820e+02  1.17830e+02  1.17840e+02  1.17850e+02  1.17860e+02  1.17870e+02
  1.17880e+02  1.17890e+02  1.17900e+02  1.17910e+02  1.17920e+02  1.17930e+02
  1.17940e+02  1.17950e+02  1.17960e+02  1.17970e+02  1.17980e+02  1.17990e+02
  1.18000e+02  1.18010e+02  1.18020e+02  1.18030e+02  1.18040e+02  1.18050e+02
  1.18060e+02  1.18070e+02  1.18080e+02  1.18090e+02  1.18100e+02  1.18110e+02
  1.18120e+02  1.18130e+02  1.18140e+02  1.18150e+02  1.18160e+02  1.18170e+02
  1.18180e+02  1.18190e+02  1.18200e+02  1.18210e+02  1.18220e+02  1.18230e+02
  1.18240e+02  1.18250e+02  1.18260e+02  1.18270e+02  1.18280e+02  1.18290e+02
  1.18300e+02  1.18310e+02  1.18320e+02  1.18330e+02  1.18340e+02  1.18350e+02
  1.18360e+02  1.18370e+02  1.18380e+02  1.18390e+02  1.18400e+02  1.18410e+02
  1.18420e+02  1.18430e+02  1.18440e+02  1.18450e+02  1.18460e+02  1.18470e+02
  1.18480e+02  1.18490e+02  1.18500e+02  1.18510e+02  1.18520e+02  1.18530e+02
  1.18540e+02  1.18550e+02  1.18560e+02  1.18570e+02  1.18580e+02  1.18590e+02
  1.18600e+02  1.18610e+02  1.18620e+02  1.18630e+02  1.18640e+02  1.18650e+02
  1.18660e+02  1.18670e+02  1.18680e+02  1.18690e+02  1.18700e+02  1.18710e+02
  1.18720e+02  1.18730e+02  1.18740e+02  1.18750e+02  1.18760e+02  1.18770e+02
  1.18780e+02  1.18790e+02  1.18800e+02  1.18810e+02  1.18820e+02  1.18830e+02
  1.18840e+02  1.18850e+02  1.18860e+02  1.18870e+02  1.18880e+02  1.18890e+02
  1.18900e+02  1.18910e+02  1.18920e+02  1.18930e+02  1.18940e+02  1.18950e+02
  1.18960e+02  1.18970e+02  1.18980e+02  1.18990e+02  1.19000e+02  1.19010e+02
  1.19020e+02  1.19030e+02  1.19040e+02  1.19050e+02  1.19060e+02  1.19070e+02
  1.19080e+02  1.19090e+02  1.19100e+02  1.19110e+02  1.19120e+02  1.19130e+02
  1.19140e+02  1.19150e+02  1.19160e+02  1.19170e+02  1.19180e+02  1.19190e+02
  1.19200e+02  1.19210e+02  1.19220e+02  1.19230e+02  1.19240e+02  1.19250e+02
  1.19260e+02  1.19270e+02  1.19280e+02  1.19290e+02  1.19300e+02  1.19310e+02
  1.19320e+02  1.19330e+02  1.19340e+02  1.19350e+02  1.19360e+02  1.19370e+02
  1.19380e+02  1.19390e+02  1.19400e+02  1.19410e+02  1.19420e+02  1.19430e+02
  1.19440e+02  1.19450e+02  1.19460e+02  1.19470e+02  1.19480e+02  1.19490e+02
  1.19500e+02  1.19510e+02  1.19520e+02  1.19530e+02  1.19540e+02  1.19550e+02
  1.19560e+02  1.19570e+02  1.19580e+02  1.19590e+02  1.19600e+02  1.19610e+02
  1.19620e+02  1.19630e+02  1.19640e+02  1.19650e+02  1.19660e+02  1.19670e+02
  1.19680e+02  1.19690e+02  1.19700e+02  1.19710e+02  1.19720e+02  1.19730e+02
  1.19740e+02  1.19750e+02  1.19760e+02  1.19770e+02  1.19780e+02  1.19790e+02
  1.19800e+02  1.19810e+02  1.19820e+02  1.19830e+02  1.19840e+02  1.19850e+02
  1.19860e+02  1.19870e+02  1.19880e+02  1.19890e+02  1.19900e+02  1.19910e+02
  1.19920e+02  1.19930e+02  1.19940e+02  1.19950e+02  1.19960e+02  1.19970e+02
  1.19980e+02  1.19990e+02  1.20000e+02  1.20010e+02  1.20020e+02  1.20030e+02
  1.20040e+02  1.20050e+02  1.20060e+02  1.20070e+02  1.20080e+02  1.20090e+02
  1.20100e+02  1.20110e+02  1.20120e+02  1.20130e+02  1.20140e+02  1.20150e+02
  1.20160e+02  1.20170e+02  1.20180e+02  1.20190e+02  1.20200e+02  1.20210e+02
  1.20220e+02  1.20230e+02  1.20240e+02  1.20250e+02  1.20260e+02  1.20270e+02
  1.20280e+02  1.20290e+02  1.20300e+02  1.20310e+02  1.20320e+02  1.20330e+02
  1.20340e+02  1.20350e+02  1.20360e+02  1.20370e+02  1.20380e+02  1.20390e+02
  1.20400e+02  1.20410e+02  1.20420e+02  1.20430e+02  1.20440e+02  1.20450e+02
  1.20460e+02  1.20470e+02  1.20480e+02  1.20490e+02  1.20500e+02  1.20510e+02
  1.20520e+02  1.20530e+02  1.20540e+02  1.20550e+02  1.20560e+02  1.20570e+02
  1.20580e+02  1.20590e+02  1.20600e+02  1.20610e+02  1.20620e+02  1.20630e+02
  1.20640e+02  1.20650e+02  1.20660e+02  1.20670e+02  1.20680e+02  1.20690e+02
  1.20700e+02  1.20710e+02  1.20720e+02  1.20730e+02  1.20740e+02  1.20750e+02
  1.20760e+02  1.20770e+02  1.20780e+02  1.20790e+02  1.20800e+02  1.20810e+02
  1.20820e+02  1.20830e+02  1.20840e+02  1.20850e+02  1.20860e+02  1.20870e+02
  1.20880e+02  1.20890e+02  1.20900e+02  1.20910e+02  1.20920e+02  1.20930e+02
  1.20940e+02  1.20950e+02  1.20960e+02  1.20970e+02  1.20980e+02  1.20990e+02
  1.21000e+02  1.21010e+02  1.21020e+02  1.21030e+02  1.21040e+02  1.21050e+02
  1.21060e+02  1.21070e+02  1.21080e+02  1.21090e+02  1.21100e+02  1.21110e+02
  1.21120e+02  1.21130e+02  1.21140e+02  1.21150e+02  1.21160e+02  1.21170e+02
  1.21180e+02  1.21190e+02  1.21200e+02  1.21210e+02  1.21220e+02  1.21230e+02
  1.21240e+02  1.21250e+02  1.21260e+02  1.21270e+02  1.21280e+02  1.21290e+02
  1.21300e+02  1.21310e+02  1.21320e+02  1.21330e+02  1.21340e+02  1.21350e+02
  1.21360e+02  1.21370e+02  1.21380e+02  1.21390e+02  1.21400e+02  1.21410e+02
  1.21420e+02  1.21430e+02  1.21440e+02  1.21450e+02  1.21460e+02  1.21470e+02
  1.21480e+02  1.21490e+02  1.21500e+02  1.21510e+02  1.21520e+02  1.21530e+02
  1.21540e+02  1.21550e+02  1.21560e+02  1.21570e+02  1.21580e+02  1.21590e+02
  1.21600e+02  1.21610e+02  1.21620e+02  1.21630e+02  1.21640e+02  1.21650e+02
  1.21660e+02  1.21670e+02  1.21680e+02  1.21690e+02  1.21700e+02  1.21710e+02
  1.21720e+02  1.21730e+02  1.21740e+02  1.21750e+02  1.21760e+02  1.21770e+02
  1.21780e+02  1.21790e+02  1.21800e+02  1.21810e+02  1.21820e+02  1.21830e+02
  1.21840e+02  1.21850e+02  1.21860e+02  1.21870e+02  1.21880e+02  1.21890e+02
  1.21900e+02  1.21910e+02  1.21920e+02  1.21930e+02  1.21940e+02  1.21950e+02
  1.21960e+02  1.21970e+02  1.21980e+02  1.21990e+02  1.22000e+02  1.22010e+02
  1.22020e+02  1.22030e+02  1.22040e+02  1.22050e+02  1.22060e+02  1.22070e+02
  1.22080e+02  1.22090e+02  1.22100e+02  1.22110e+02  1.22120e+02  1.22130e+02
  1.22140e+02  1.22150e+02  1.22160e+02  1.22170e+02  1.22180e+02  1.22190e+02
  1.22200e+02  1.22210e+02  1.22220e+02  1.22230e+02  1.22240e+02  1.22250e+02
  1.22260e+02  1.22270e+02  1.22280e+02  1.22290e+02  1.22300e+02  1.22310e+02
  1.22320e+02  1.22330e+02  1.22340e+02  1.22350e+02  1.22360e+02  1.22370e+02
  1.22380e+02  1.22390e+02  1.22400e+02  1.22410e+02  1.22420e+02  1.22430e+02
  1.22440e+02  1.22450e+02  1.22460e+02  1.22470e+02  1.22480e+02  1.22490e+02
  1.22500e+02  1.22510e+02  1.22520e+02  1.22530e+02  1.22540e+02  1.22550e+02