# f [Hz] vs SPL(f) [dB]
# Lower frequency: 2.50000000e+01
# Upper frequency: 1.00000000e+04
# Window model  : Hanning
# Window number : 3
# Window samples: 4096
# Window overlap %: 5.00000000e+01
# dBRef         : 2.00000000e-05
# f             	SPL(f)          
2.50000000e+01	-1.59758685e+02
2.50244141e+01	-1.56789044e+02
2.50488281e+01	-1.55177994e+02
2.50732422e+01	-1.57908461e+02
2.50976562e+01	-1.51592486e+02
2.51220703e+01	-1.52140984e+02
2.51464844e+01	-1.54248922e+02
2.51708984e+01	-1.49855814e+02
2.51953125e+01	-1.51062540e+02
2.52197266e+01	-1.55595398e+02
2.52441406e+01	-1.56862908e+02
2.52685547e+01	-1.55799522e+02
2.52929688e+01	-1.57679164e+02
2.53173828e+01	-1.61158872e+02
2.53417969e+01	-1.57478845e+02
2.53662109e+01	-1.48307963e+02
2.53906250e+01	-1.46598583e+02
2.54150391e+01	-1.51890463e+02
2.54394531e+01	-1.54966996e+02
2.54638672e+01	-1.56755434e+02
2.54882812e+01	-1.54021636e+02
2.55126953e+01	-1.55483344e+02
2.55371094e+01	-1.56524903e+02
2.55615234e+01	-1.53566863e+02
2.55859375e+01	-1.54385185e+02
2.56103516e+01	-1.53527662e+02
2.56347656e+01	-1.56154654e+02
2.56591797e+01	-1.57252437e+02
2.56835938e+01	-1.57499207e+02
2.57080078e+01	-1.53748180e+02
2.57324219e+01	-1.50774915e+02
2.57568359e+01	-1.51046132e+02
2.57812500e+01	-1.49487490e+02
2.58056641e+01	-1.49239810e+02
2.58300781e+01	-1.50802520e+02
2.58544922e+01	-1.52502582e+02
2.58789062e+01	-1.53457609e+02
2.59033203e+01	-1.54427084e+02
2.59277344e+01	-1.55677142e+02
2.59521484e+01	-1.57150956e+02
2.59765625e+01	-1.60460523e+02
2.60009766e+01	-1.65644693e+02
2.60253906e+01	-1.54121559e+02
2.60498047e+01	-1.48874323e+02
2.60742188e+01	-1.50761457e+02
2.60986328e+01	-1.60593299e+02
2.61230469e+01	-1.59198399e+02
2.61474609e+01	-1.57275295e+02
2.61718750e+01	-1.58429320e+02
2.61962891e+01	-1.58465546e+02
2.62207031e+01	-1.56133310e+02
2.62451172e+01	-1.52026917e+02
2.62695312e+01	-1.49196146e+02
2.62939453e+01	-1.50693613e+02
2.63183594e+01	-1.56339031e+02
2.63427734e+01	-1.57515181e+02
2.63671875e+01	-1.56665543e+02
2.63916016e+01	-1.56806926e+02
2.64160156e+01	-1.53415896e+02
2.64404297e+01	-1.50540736e+02
2.64648438e+01	-1.53436978e+02
2.64892578e+01	-1.49123848e+02
2.65136719e+01	-1.48441774e+02
2.65380859e+01	-1.54579961e+02
2.65625000e+01	-1.56023095e+02
2.65869141e+01	-1.55351070e+02
2.66113281e+01	-1.53632504e+02
2.66357422e+01	-1.57732595e+02
2.66601562e+01	-1.59908042e+02
2.66845703e+01	-1.53895303e+02
2.67089844e+01	-1.46304184e+02
2.67333984e+01	-1.48863521e+02
2.67578125e+01	-1.61873254e+02
2.67822266e+01	-1.61061067e+02
2.68066406e+01	-1.55402602e+02
2.68310547e+01	-1.57909003e+02
2.68554688e+01	-1.61453795e+02
2.68798828e+01	-1.57228921e+02
2.69042969e+01	-1.48086570e+02
2.69287109e+01	-1.46475169e+02
2.69531250e+01	-1.56201882e+02
2.69775391e+01	-1.56449830e+02
2.70019531e+01	-1.56495029e+02
2.70263672e+01	-1.57687525e+02
2.70507812e+01	-1.53800145e+02
2.70751953e+01	-1.52122104e+02
2.70996094e+01	-1.49270448e+02
2.71240234e+01	-1.53753127e+02
2.71484375e+01	-1.47143532e+02
2.71728516e+01	-1.48598784e+02
2.71972656e+01	-1.55220263e+02
2.72216797e+01	-1.54821500e+02
2.72460938e+01	-1.54129480e+02
2.72705078e+01	-1.56085764e+02
2.72949219e+01	-1.56620468e+02
2.73193359e+01	-1.53938373e+02
2.73437500e+01	-1.52899812e+02
2.73681641e+01	-1.53013655e+02
2.73925781e+01	-1.54899165e+02
2.74169922e+01	-1.57557234e+02
2.74414062e+01	-1.56735603e+02
2.74658203e+01	-1.55152580e+02
2.74902344e+01	-1.55142805e+02
2.75146484e+01	-1.55138436e+02
2.75390625e+01	-1.52345351e+02
2.75634766e+01	-1.55183054e+02
2.75878906e+01	-1.47916670e+02
2.76123047e+01	-1.49320465e+02
2.76367188e+01	-1.58751422e+02
2.76611328e+01	-1.60284432e+02
2.76855469e+01	-1.56769580e+02
2.77099609e+01	-1.55953910e+02
2.77343750e+01	-1.57885267e+02
2.77587891e+01	-1.55844601e+02
2.77832031e+01	-1.55377781e+02
2.78076172e+01	-1.50727819e+02
2.78320312e+01	-1.50015186e+02
2.78564453e+01	-1.54976060e+02
2.78808594e+01	-1.54765664e+02
2.79052734e+01	-1.54583581e+02
2.79296875e+01	-1.55242375e+02
2.79541016e+01	-1.54617168e+02
2.79785156e+01	-1.52407537e+02
2.80029297e+01	-1.50843931e+02
2.80273438e+01	-1.51909641e+02
2.80517578e+01	-1.50875768e+02
2.80761719e+01	-1.55929061e+02
2.81005859e+01	-1.59803643e+02
2.81250000e+01	-1.52636151e+02
2.81494141e+01	-1.53509945e+02
2.81738281e+01	-1.59211065e+02
2.81982422e+01	-1.62268757e+02
2.82226562e+01	-1.61011981e+02
2.82470703e+01	-1.54065694e+02
2.82714844e+01	-1.54612532e+02
2.82958984e+01	-1.57764987e+02
2.83203125e+01	-1.60216849e+02
2.83447266e+01	-1.56584033e+02
2.83691406e+01	-1.56275148e+02
2.83935547e+01	-1.55257730e+02
2.84179688e+01	-1.54592988e+02
2.84423828e+01	-1.60897909e+02
2.84667969e+01	-1.50875494e+02
2.84912109e+01	-1.48240496e+02
2.85156250e+01	-1.52158524e+02
2.85400391e+01	-1.55458191e+02
2.85644531e+01	-1.56792080e+02
2.85888672e+01	-1.59529235e+02
2.86132812e+01	-1.55949194e+02
2.86376953e+01	-1.53254784e+02
2.86621094e+01	-1.52863024e+02
2.86865234e+01	-1.49839533e+02
2.87109375e+01	-1.50748065e+02
2.87353516e+01	-1.59644279e+02
2.87597656e+01	-1.59516482e+02
2.87841797e+01	-1.56538629e+02
2.88085938e+01	-1.56320619e+02
2.88330078e+01	-1.55022832e+02
2.88574219e+01	-1.53973849e+02
2.88818359e+01	-1.56541633e+02
2.89062500e+01	-1.59200925e+02
2.89306641e+01	-1.58899532e+02
2.89550781e+01	-1.60445151e+02
2.89794922e+01	-1.57317864e+02
2.90039062e+01	-1.53291789e+02
2.90283203e+01	-1.54624005e+02
2.90527344e+01	-1.58019039e+02
2.90771484e+01	-1.58399287e+02
2.91015625e+01	-1.57180740e+02
2.91259766e+01	-1.56731046e+02
2.91503906e+01	-1.58760859e+02
2.91748047e+01	-1.61860217e+02
2.91992188e+01	-1.60704097e+02
2.92236328e+01	-1.58839699e+02
2.92480469e+01	-1.56560996e+02
2.92724609e+01	-1.60756381e+02
2.92968750e+01	-1.62816001e+02
2.93212891e+01	-1.55263743e+02
2.93457031e+01	-1.53397629e+02
2.93701172e+01	-1.54632394e+02
2.93945312e+01	-1.57581110e+02
2.94189453e+01	-1.59695681e+02
2.94433594e+01	-1.61862014e+02
2.94677734e+01	-1.60556278e+02
2.94921875e+01	-1.61974290e+02
2.95166016e+01	-1.57093973e+02
2.95410156e+01	-1.53505088e+02
2.95654297e+01	-1.56791472e+02
2.95898438e+01	-1.55238524e+02
2.96142578e+01	-1.58317177e+02
2.96386719e+01	-1.59469404e+02
2.96630859e+01	-1.57948496e+02
2.96875000e+01	-1.57307747e+02
2.97119141e+01	-1.55898963e+02
2.97363281e+01	-1.56947383e+02
2.97607422e+01	-1.61062482e+02
2.97851562e+01	-1.62961046e+02
2.98095703e+01	-1.58711364e+02
2.98339844e+01	-1.57275039e+02
2.98583984e+01	-1.61148468e+02
2.98828125e+01	-1.63091610e+02
2.99072266e+01	-1.55663335e+02
2.99316406e+01	-1.52651079e+02
2.99560547e+01	-1.55317483e+02
2.99804688e+01	-1.58253467e+02
3.00048828e+01	-1.50642730e+02
3.00292969e+01	-1.51374505e+02
3.00537109e+01	-1.57253964e+02
3.00781250e+01	-1.54119705e+02
3.01025391e+01	-1.53969153e+02
3.01269531e+01	-1.53887197e+02
3.01513672e+01	-1.56446981e+02
3.01757812e+01	-1.55299870e+02
3.02001953e+01	-1.56503220e+02
3.02246094e+01	-1.57113894e+02
3.02490234e+01	-1.60428276e+02
3.02734375e+01	-1.63317278e+02
3.02978516e+01	-1.62115797e+02
3.03222656e+01	-1.60128448e+02
3.03466797e+01	-1.60167550e+02
3.03710938e+01	-1.57309617e+02
3.03955078e+01	-1.56285295e+02
3.04199219e+01	-1.56750023e+02
3.04443359e+01	-1.52803292e+02
3.04687500e+01	-1.51600788e+02
3.04931641e+01	-1.54852096e+02
3.05175781e+01	-1.56069775e+02
3.05419922e+01	-1.56537315e+02
3.05664062e+01	-1.56352501e+02
3.05908203e+01	-1.59465707e+02
3.06152344e+01	-1.58629386e+02
3.06396484e+01	-1.60157127e+02
3.06640625e+01	-1.50735479e+02
3.06884766e+01	-1.49588400e+02
3.07128906e+01	-1.53076914e+02
3.07373047e+01	-1.55720894e+02
3.07617188e+01	-1.59937177e+02
3.07861328e+01	-1.53508644e+02
3.08105469e+01	-1.55608419e+02
3.08349609e+01	-1.59622354e+02
3.08593750e+01	-1.57688597e+02
3.08837891e+01	-1.53460299e+02
3.09082031e+01	-1.50133307e+02
3.09326172e+01	-1.56859491e+02
3.09570312e+01	-1.60947429e+02
3.09814453e+01	-1.62640316e+02
3.10058594e+01	-1.55833831e+02
3.10302734e+01	-1.57487724e+02
3.10546875e+01	-1.54860392e+02
3.10791016e+01	-1.54340743e+02
3.11035156e+01	-1.53205629e+02
3.11279297e+01	-1.55011948e+02
3.11523438e+01	-1.59855440e+02
3.11767578e+01	-1.63250105e+02
3.12011719e+01	-1.58798334e+02
3.12255859e+01	-1.57000500e+02
3.12500000e+01	-1.53870958e+02
3.12744141e+01	-1.51563561e+02
3.12988281e+01	-1.50647205e+02
3.13232422e+01	-1.54615283e+02
3.13476562e+01	-1.57228297e+02
3.13720703e+01	-1.54671397e+02
3.13964844e+01	-1.53764647e+02
3.14208984e+01	-1.53138779e+02
3.14453125e+01	-1.52303910e+02
3.14697266e+01	-1.52623723e+02
3.14941406e+01	-1.49801633e+02
3.15185547e+01	-1.48642498e+02
3.15429688e+01	-1.53899902e+02
3.15673828e+01	-1.55832900e+02
3.15917969e+01	-1.60169448e+02
3.16162109e+01	-1.61322428e+02
3.16406250e+01	-1.58766115e+02
3.16650391e+01	-1.59060792e+02
3.16894531e+01	-1.61323657e+02
3.17138672e+01	-1.56935365e+02
3.17382812e+01	-1.53034106e+02
3.17626953e+01	-1.53263892e+02
3.17871094e+01	-1.51107743e+02
3.18115234e+01	-1.54008438e+02
3.18359375e+01	-1.56694985e+02
3.18603516e+01	-1.58705313e+02
3.18847656e+01	-1.51462334e+02
3.19091797e+01	-1.51593796e+02
3.19335938e+01	-1.52961547e+02
3.19580078e+01	-1.52967843e+02
3.19824219e+01	-1.51062626e+02
3.20068359e+01	-1.49613617e+02
3.20312500e+01	-1.53875592e+02
3.20556641e+01	-1.55375133e+02
3.20800781e+01	-1.55963761e+02
3.21044922e+01	-1.56057094e+02
3.21289062e+01	-1.56418979e+02
3.21533203e+01	-1.54797218e+02
3.21777344e+01	-1.52549034e+02
3.22021484e+01	-1.47178250e+02
3.22265625e+01	-1.45770083e+02
3.22509766e+01	-1.54244267e+02
3.22753906e+01	-1.52695083e+02
3.22998047e+01	-1.51439122e+02
3.23242188e+01	-1.48844320e+02
3.23486328e+01	-1.51124546e+02
3.23730469e+01	-1.52874469e+02
3.23974609e+01	-1.45440981e+02
3.24218750e+01	-1.44436926e+02
3.24462891e+01	-1.43639088e+02
3.24707031e+01	-1.47810496e+02
3.24951172e+01	-1.49134117e+02
3.25195312e+01	-1.48126466e+02
3.25439453e+01	-1.49440488e+02
3.25683594e+01	-1.47130015e+02
3.25927734e+01	-1.49348478e+02
3.26171875e+01	-1.47701392e+02
3.26416016e+01	-1.45423212e+02
3.26660156e+01	-1.44161757e+02
3.26904297e+01	-1.50056672e+02
3.27148438e+01	-1.51847204e+02
3.27392578e+01	-1.50132983e+02
3.27636719e+01	-1.49850365e+02
3.27880859e+01	-1.51261133e+02
3.28125000e+01	-1.51370177e+02
3.28369141e+01	-1.47941779e+02
3.28613281e+01	-1.45144409e+02
3.28857422e+01	-1.44992406e+02
3.29101562e+01	-1.52762724e+02
3.29345703e+01	-1.56839760e+02
3.29589844e+01	-1.56204924e+02
3.29833984e+01	-1.55601553e+02
3.30078125e+01	-1.53980497e+02
3.30322266e+01	-1.54748396e+02
3.30566406e+01	-1.54385453e+02
3.30810547e+01	-1.53310316e+02
3.31054688e+01	-1.55878595e+02
3.31298828e+01	-1.55436133e+02
3.31542969e+01	-1.56051317e+02
3.31787109e+01	-1.53549893e+02
3.32031250e+01	-1.54130390e+02
3.32275391e+01	-1.60358329e+02
3.32519531e+01	-1.50271927e+02
3.32763672e+01	-1.51899487e+02
3.33007812e+01	-1.51842857e+02
3.33251953e+01	-1.52399143e+02
3.33496094e+01	-1.57203469e+02
3.33740234e+01	-1.55935372e+02
3.33984375e+01	-1.52313508e+02
3.34228516e+01	-1.54447598e+02
3.34472656e+01	-1.56549327e+02
3.34716797e+01	-1.50217889e+02
3.34960938e+01	-1.48682211e+02
3.35205078e+01	-1.46663052e+02
3.35449219e+01	-1.47501342e+02
3.35693359e+01	-1.54380006e+02
3.35937500e+01	-1.54554748e+02
3.36181641e+01	-1.50962681e+02
3.36425781e+01	-1.51255520e+02
3.36669922e+01	-1.53598790e+02
3.36914062e+01	-1.50439887e+02
3.37158203e+01	-1.45794005e+02
3.37402344e+01	-1.42214351e+02
3.37646484e+01	-1.42508495e+02
3.37890625e+01	-1.51545856e+02
3.38134766e+01	-1.58118762e+02
3.38378906e+01	-1.51199391e+02
3.38623047e+01	-1.50637788e+02
3.38867188e+01	-1.50990606e+02
3.39111328e+01	-1.50588357e+02
3.39355469e+01	-1.48638184e+02
3.39599609e+01	-1.43465977e+02
3.39843750e+01	-1.43211064e+02
3.40087891e+01	-1.51539154e+02
3.40332031e+01	-1.58588294e+02
3.40576172e+01	-1.58425590e+02
3.40820312e+01	-1.57031049e+02
3.41064453e+01	-1.57817013e+02
3.41308594e+01	-1.54564632e+02
3.41552734e+01	-1.52528184e+02
3.41796875e+01	-1.53412729e+02
3.42041016e+01	-1.52882432e+02
3.42285156e+01	-1.56326678e+02
3.42529297e+01	-1.51413359e+02
3.42773438e+01	-1.50664717e+02
3.43017578e+01	-1.54732872e+02
3.43261719e+01	-1.52214978e+02
3.43505859e+01	-1.50442270e+02
3.43750000e+01	-1.50338419e+02
3.43994141e+01	-1.48656597e+02
3.44238281e+01	-1.49746434e+02
3.44482422e+01	-1.58302280e+02
3.44726562e+01	-1.62648867e+02
3.44970703e+01	-1.60217861e+02
3.45214844e+01	-1.62311918e+02
3.45458984e+01	-1.58436340e+02
3.45703125e+01	-1.52579076e+02
3.45947266e+01	-1.51946473e+02
3.46191406e+01	-1.51417348e+02
3.46435547e+01	-1.54104155e+02
3.46679688e+01	-1.61246104e+02
3.46923828e+01	-1.60826867e+02
3.47167969e+01	-1.57820011e+02
3.47412109e+01	-1.65148224e+02
3.47656250e+01	-1.60849996e+02
3.47900391e+01	-1.54817223e+02
3.48144531e+01	-1.53483045e+02
3.48388672e+01	-1.60859113e+02
3.48632812e+01	-1.53753224e+02
3.48876953e+01	-1.53492267e+02
3.49121094e+01	-1.56664852e+02
3.49365234e+01	-1.51166598e+02
3.49609375e+01	-1.51246970e+02
3.49853516e+01	-1.53109445e+02
3.50097656e+01	-1.54353595e+02
3.50341797e+01	-1.54818507e+02
3.50585938e+01	-1.53021903e+02
3.50830078e+01	-1.59491923e+02
3.51074219e+01	-1.61615267e+02
3.51318359e+01	-1.56740401e+02
3.51562500e+01	-1.52826875e+02
3.51806641e+01	-1.52404704e+02
3.52050781e+01	-1.53082357e+02
3.52294922e+01	-1.54059437e+02
3.52539062e+01	-1.55075032e+02
3.52783203e+01	-1.51737664e+02
3.53027344e+01	-1.51053023e+02
3.53271484e+01	-1.57997187e+02
3.53515625e+01	-1.61528020e+02
3.53759766e+01	-1.58110864e+02
3.54003906e+01	-1.55278316e+02
3.54248047e+01	-1.52449647e+02
3.54492188e+01	-1.54322238e+02
3.54736328e+01	-1.54144666e+02
3.54980469e+01	-1.54268455e+02
3.55224609e+01	-1.54459107e+02
3.55468750e+01	-1.58682544e+02
3.55712891e+01	-1.59573841e+02
3.55957031e+01	-1.57930567e+02
3.56201172e+01	-1.60867412e+02
3.56445312e+01	-1.57904763e+02
3.56689453e+01	-1.56648927e+02
3.56933594e+01	-1.52658095e+02
3.57177734e+01	-1.53728237e+02
3.57421875e+01	-1.57794445e+02
3.57666016e+01	-1.62637212e+02
3.57910156e+01	-1.63644693e+02
3.58154297e+01	-1.57900487e+02
3.58398438e+01	-1.58784283e+02
3.58642578e+01	-1.58158503e+02
3.58886719e+01	-1.59239964e+02
3.59130859e+01	-1.53471436e+02
3.59375000e+01	-1.49333734e+02
3.59619141e+01	-1.49116354e+02
3.59863281e+01	-1.53322758e+02
3.60107422e+01	-1.60981740e+02
3.60351562e+01	-1.60733130e+02
3.60595703e+01	-1.54270374e+02
3.60839844e+01	-1.56170223e+02
3.61083984e+01	-1.60507234e+02
3.61328125e+01	-1.56499208e+02
3.61572266e+01	-1.50911974e+02
3.61816406e+01	-1.51725771e+02
3.62060547e+01	-1.55992108e+02
3.62304688e+01	-1.55061671e+02
3.62548828e+01	-1.55677054e+02
3.62792969e+01	-1.60703357e+02
3.63037109e+01	-1.59631494e+02
3.63281250e+01	-1.55867173e+02
3.63525391e+01	-1.52349698e+02
3.63769531e+01	-1.48574241e+02
3.64013672e+01	-1.47987483e+02
3.64257812e+01	-1.52210120e+02
3.64501953e+01	-1.61131216e+02
3.64746094e+01	-1.60640585e+02
3.64990234e+01	-1.57945706e+02
3.65234375e+01	-1.59817757e+02
3.65478516e+01	-1.59162829e+02
3.65722656e+01	-1.54591831e+02
3.65966797e+01	-1.54140113e+02
3.66210938e+01	-1.57485276e+02
3.66455078e+01	-1.53994370e+02
3.66699219e+01	-1.51564303e+02
3.66943359e+01	-1.57068449e+02
3.67187500e+01	-1.55270535e+02
3.67431641e+01	-1.55158647e+02
3.67675781e+01	-1.52767595e+02
3.67919922e+01	-1.50949636e+02
3.68164062e+01	-1.50743573e+02
3.68408203e+01	-1.50597025e+02
3.68652344e+01	-1.54081870e+02
3.68896484e+01	-1.57457406e+02
3.69140625e+01	-1.60972174e+02
3.69384766e+01	-1.58593823e+02
3.69628906e+01	-1.61161176e+02
3.69873047e+01	-1.52702766e+02
3.70117188e+01	-1.49535734e+02
3.70361328e+01	-1.52420534e+02
3.70605469e+01	-1.53385035e+02
3.70849609e+01	-1.55340188e+02
3.71093750e+01	-1.54671519e+02
3.71337891e+01	-1.56317504e+02
3.71582031e+01	-1.63207656e+02
3.71826172e+01	-1.58496242e+02
3.72070312e+01	-1.56237782e+02
3.72314453e+01	-1.52365276e+02
3.72558594e+01	-1.53185588e+02
3.72802734e+01	-1.52304676e+02
3.73046875e+01	-1.52885367e+02
3.73291016e+01	-1.59566758e+02
3.73535156e+01	-1.64139540e+02
3.73779297e+01	-1.55539592e+02
3.74023438e+01	-1.60604525e+02
3.74267578e+01	-1.60372782e+02
3.74511719e+01	-1.53830817e+02
3.74755859e+01	-1.52712660e+02
3.75000000e+01	-1.51501120e+02
3.75244141e+01	-1.54589911e+02
3.75488281e+01	-1.59675736e+02
3.75732422e+01	-1.58991664e+02
3.75976562e+01	-1.55422198e+02
3.76220703e+01	-1.52790792e+02
3.76464844e+01	-1.52391111e+02
3.76708984e+01	-1.58760250e+02
3.76953125e+01	-1.56729285e+02
3.77197266e+01	-1.52114619e+02
3.77441406e+01	-1.53477177e+02
3.77685547e+01	-1.51515332e+02
3.77929688e+01	-1.51651408e+02
3.78173828e+01	-1.53034229e+02
3.78417969e+01	-1.53522389e+02
3.78662109e+01	-1.54070681e+02
3.78906250e+01	-1.55858835e+02
3.79150391e+01	-1.57787426e+02
3.79394531e+01	-1.52289793e+02
3.79638672e+01	-1.53921190e+02
3.79882812e+01	-1.53115671e+02
3.80126953e+01	-1.52641067e+02
3.80371094e+01	-1.57752426e+02
3.80615234e+01	-1.55881227e+02
3.80859375e+01	-1.52660050e+02
3.81103516e+01	-1.59169419e+02
3.81347656e+01	-1.52639731e+02
3.81591797e+01	-1.50008792e+02
3.81835938e+01	-1.54855912e+02
3.82080078e+01	-1.59979651e+02
3.82324219e+01	-1.61750683e+02
3.82568359e+01	-1.58582847e+02
3.82812500e+01	-1.57485110e+02
3.83056641e+01	-1.53620809e+02
3.83300781e+01	-1.55434340e+02
3.83544922e+01	-1.55828878e+02
3.83789062e+01	-1.55041809e+02
3.84033203e+01	-1.59629768e+02
3.84277344e+01	-1.62492024e+02
3.84521484e+01	-1.58874935e+02
3.84765625e+01	-1.59272669e+02
3.85009766e+01	-1.55262042e+02
3.85253906e+01	-1.52740807e+02
3.85498047e+01	-1.56174462e+02
3.85742188e+01	-1.54807195e+02
3.85986328e+01	-1.52052462e+02
3.86230469e+01	-1.56533824e+02
3.86474609e+01	-1.57365832e+02
3.86718750e+01	-1.57549000e+02
3.86962891e+01	-1.58934684e+02
3.87207031e+01	-1.60050064e+02
3.87451172e+01	-1.52061292e+02
3.87695312e+01	-1.52226159e+02
3.87939453e+01	-1.54862059e+02
3.88183594e+01	-1.51153313e+02
3.88427734e+01	-1.53052699e+02
3.88671875e+01	-1.55160749e+02
3.88916016e+01	-1.52560261e+02
3.89160156e+01	-1.53590809e+02
3.89404297e+01	-1.53827318e+02
3.89648438e+01	-1.51676118e+02
3.89892578e+01	-1.52157008e+02
3.90136719e+01	-1.52706601e+02
3.90380859e+01	-1.52076606e+02
3.90625000e+01	-1.57123507e+02
3.90869141e+01	-1.56937589e+02
3.91113281e+01	-1.58498823e+02
3.91357422e+01	-1.59987569e+02
3.91601562e+01	-1.57953392e+02
3.91845703e+01	-1.56295796e+02
3.92089844e+01	-1.56325134e+02
3.92333984e+01	-1.55919562e+02
3.92578125e+01	-1.58786589e+02
3.92822266e+01	-1.54882073e+02
3.93066406e+01	-1.55640210e+02
3.93310547e+01	-1.59874703e+02
3.93554688e+01	-1.56401486e+02
3.93798828e+01	-1.55414088e+02
3.94042969e+01	-1.53543949e+02
3.94287109e+01	-1.53095569e+02
3.94531250e+01	-1.56631460e+02
3.94775391e+01	-1.53558793e+02
3.95019531e+01	-1.55723346e+02
3.95263672e+01	-1.59878481e+02
3.95507812e+01	-1.57735959e+02
3.95751953e+01	-1.55776470e+02
3.95996094e+01	-1.53821892e+02
3.96240234e+01	-1.52014034e+02
3.96484375e+01	-1.54069369e+02
3.96728516e+01	-1.52578788e+02
3.96972656e+01	-1.50074066e+02
3.97216797e+01	-1.53659086e+02
3.97460938e+01	-1.58236813e+02
3.97705078e+01	-1.56036566e+02
3.97949219e+01	-1.54596835e+02
3.98193359e+01	-1.53161050e+02
3.98437500e+01	-1.56580313e+02
3.98681641e+01	-1.56178233e+02
3.98925781e+01	-1.53051112e+02
3.99169922e+01	-1.50984031e+02
3.99414062e+01	-1.55028195e+02
3.99658203e+01	-1.59452119e+02
3.99902344e+01	-1.62327501e+02
4.00146484e+01	-1.64398973e+02
4.00390625e+01	-1.57935288e+02
4.00634766e+01	-1.58592371e+02
4.00878906e+01	-1.58595205e+02
4.01123047e+01	-1.62686680e+02
4.01367188e+01	-1.55824279e+02
4.01611328e+01	-1.53620173e+02
4.01855469e+01	-1.56176067e+02
4.02099609e+01	-1.60305847e+02
4.02343750e+01	-1.56553223e+02
4.02587891e+01	-1.57143088e+02
4.02832031e+01	-1.59258112e+02
4.03076172e+01	-1.58021312e+02
4.03320312e+01	-1.56161292e+02
4.03564453e+01	-1.54141985e+02
4.03808594e+01	-1.56891990e+02
4.04052734e+01	-1.58164552e+02
4.04296875e+01	-1.56675848e+02
4.04541016e+01	-1.53946679e+02
4.04785156e+01	-1.54158154e+02
4.05029297e+01	-1.52927124e+02
4.05273438e+01	-1.53838945e+02
4.05517578e+01	-1.54036024e+02
4.05761719e+01	-1.52695815e+02
4.06005859e+01	-1.56790356e+02
4.06250000e+01	-1.63898061e+02
4.06494141e+01	-1.60820256e+02
4.06738281e+01	-1.60865532e+02
4.06982422e+01	-1.58048528e+02
4.07226562e+01	-1.59611095e+02
4.07470703e+01	-1.61360392e+02
4.07714844e+01	-1.58847900e+02
4.07958984e+01	-1.57020417e+02
4.08203125e+01	-1.61336193e+02
4.08447266e+01	-1.58644649e+02
4.08691406e+01	-1.59930402e+02
4.08935547e+01	-1.57927351e+02
4.09179688e+01	-1.54924507e+02
4.09423828e+01	-1.57599798e+02
4.09667969e+01	-1.59036084e+02
4.09912109e+01	-1.55544180e+02
4.10156250e+01	-1.57710378e+02
4.10400391e+01	-1.62068140e+02
4.10644531e+01	-1.58649197e+02
4.10888672e+01	-1.58217711e+02
4.11132812e+01	-1.62686138e+02
4.11376953e+01	-1.58153911e+02
4.11621094e+01	-1.56639987e+02
4.11865234e+01	-1.58383079e+02
4.12109375e+01	-1.53161674e+02
4.12353516e+01	-1.51982084e+02
4.12597656e+01	-1.55968584e+02
4.12841797e+01	-1.58215448e+02
4.13085938e+01	-1.59457745e+02
4.13330078e+01	-1.58762380e+02
4.13574219e+01	-1.55451600e+02
4.13818359e+01	-1.50954449e+02
4.14062500e+01	-1.53496452e+02
4.14306641e+01	-1.62665726e+02
4.14550781e+01	-1.60014457e+02
4.14794922e+01	-1.59566566e+02
4.15039062e+01	-1.61157683e+02
4.15283203e+01	-1.61600388e+02
4.15527344e+01	-1.63106322e+02
4.15771484e+01	-1.60192387e+02
4.16015625e+01	-1.55645571e+02
4.16259766e+01	-1.55104963e+02
4.16503906e+01	-1.53788739e+02
4.16748047e+01	-1.53955422e+02
4.16992188e+01	-1.55426388e+02
4.17236328e+01	-1.57987036e+02
4.17480469e+01	-1.57861030e+02
4.17724609e+01	-1.58273359e+02
4.17968750e+01	-1.56917252e+02
4.18212891e+01	-1.57140716e+02
4.18457031e+01	-1.55126537e+02
4.18701172e+01	-1.58292574e+02
4.18945312e+01	-1.55725894e+02
4.19189453e+01	-1.56367536e+02
4.19433594e+01	-1.61626649e+02
4.19677734e+01	-1.67382688e+02
4.19921875e+01	-1.60274217e+02
4.20166016e+01	-1.54660533e+02
4.20410156e+01	-1.53769571e+02
4.20654297e+01	-1.56067041e+02
4.20898438e+01	-1.54209244e+02
4.21142578e+01	-1.55016359e+02
4.21386719e+01	-1.56352865e+02
4.21630859e+01	-1.57990637e+02
4.21875000e+01	-1.58538405e+02
4.22119141e+01	-1.60058496e+02
4.22363281e+01	-1.62606029e+02
4.22607422e+01	-1.60211885e+02
4.22851562e+01	-1.57493003e+02
4.23095703e+01	-1.54984448e+02
4.23339844e+01	-1.55640568e+02
4.23583984e+01	-1.58732808e+02
4.23828125e+01	-1.58117030e+02
4.24072266e+01	-1.59847155e+02
4.24316406e+01	-1.58773338e+02
4.24560547e+01	-1.60666806e+02
4.24804688e+01	-1.57890867e+02
4.25048828e+01	-1.57149643e+02
4.25292969e+01	-1.53907250e+02
4.25537109e+01	-1.53052639e+02
4.25781250e+01	-1.59423788e+02
4.26025391e+01	-1.55914263e+02
4.26269531e+01	-1.55031017e+02
4.26513672e+01	-1.59712872e+02
4.26757812e+01	-1.60719149e+02
4.27001953e+01	-1.57694312e+02
4.27246094e+01	-1.59322285e+02
4.27490234e+01	-1.58362772e+02
4.27734375e+01	-1.57782300e+02
4.27978516e+01	-1.59992710e+02
4.28222656e+01	-1.62583402e+02
4.28466797e+01	-1.58044440e+02
4.28710938e+01	-1.59426069e+02
4.28955078e+01	-1.61524567e+02
4.29199219e+01	-1.59842081e+02
4.29443359e+01	-1.53276981e+02
4.29687500e+01	-1.55738709e+02
4.29931641e+01	-1.57546889e+02
4.30175781e+01	-1.61744080e+02
4.30419922e+01	-1.60505157e+02
4.30664062e+01	-1.57629189e+02
4.30908203e+01	-1.57843534e+02
4.31152344e+01	-1.57695629e+02
4.31396484e+01	-1.53698123e+02
4.31640625e+01	-1.52670126e+02
4.31884766e+01	-1.58586172e+02
4.32128906e+01	-1.56654823e+02
4.32373047e+01	-1.60341121e+02
4.32617188e+01	-1.63984533e+02
4.32861328e+01	-1.63509929e+02
4.33105469e+01	-1.61743771e+02
4.33349609e+01	-1.57521740e+02
4.33593750e+01	-1.56093959e+02
4.33837891e+01	-1.58000889e+02
4.34082031e+01	-1.58284567e+02
4.34326172e+01	-1.52533587e+02
4.34570312e+01	-1.55574772e+02
4.34814453e+01	-1.56010603e+02
4.35058594e+01	-1.58343933e+02
4.35302734e+01	-1.61645344e+02
4.35546875e+01	-1.54846835e+02
4.35791016e+01	-1.51687796e+02
4.36035156e+01	-1.54839547e+02
4.36279297e+01	-1.58529392e+02
4.36523438e+01	-1.56778942e+02
4.36767578e+01	-1.57816745e+02
4.37011719e+01	-1.57765986e+02
4.37255859e+01	-1.58287083e+02
4.37500000e+01	-1.60932342e+02
4.37744141e+01	-1.61195087e+02
4.37988281e+01	-1.61913501e+02
4.38232422e+01	-1.59042698e+02
4.38476562e+01	-1.54905107e+02
4.38720703e+01	-1.53633112e+02
4.38964844e+01	-1.56249089e+02
4.39208984e+01	-1.60084270e+02
4.39453125e+01	-1.60621026e+02
4.39697266e+01	-1.61034157e+02
4.39941406e+01	-1.53680089e+02
4.40185547e+01	-1.50412351e+02
4.40429688e+01	-1.51901967e+02
4.40673828e+01	-1.60114185e+02
4.40917969e+01	-1.61617468e+02
4.41162109e+01	-1.57304172e+02
4.41406250e+01	-1.57838174e+02
4.41650391e+01	-1.58751051e+02
4.41894531e+01	-1.58232708e+02
4.42138672e+01	-1.60417897e+02
4.42382812e+01	-1.56909566e+02
4.42626953e+01	-1.56481889e+02
4.42871094e+01	-1.58141952e+02
4.43115234e+01	-1.54793324e+02
4.43359375e+01	-1.55792296e+02
4.43603516e+01	-1.60488033e+02
4.43847656e+01	-1.57782120e+02
4.44091797e+01	-1.60231977e+02
4.44335938e+01	-1.54747957e+02
4.44580078e+01	-1.54543404e+02
4.44824219e+01	-1.57364020e+02
4.45068359e+01	-1.54252564e+02
4.45312500e+01	-1.50884107e+02
4.45556641e+01	-1.52308920e+02
4.45800781e+01	-1.55537452e+02
4.46044922e+01	-1.56904197e+02
4.46289062e+01	-1.54021948e+02
4.46533203e+01	-1.55093537e+02
4.46777344e+01	-1.53500857e+02
4.47021484e+01	-1.51879598e+02
4.47265625e+01	-1.52195035e+02
4.47509766e+01	-1.51797072e+02
4.47753906e+01	-1.55989617e+02
4.47998047e+01	-1.55199183e+02
4.48242188e+01	-1.54547100e+02
4.48486328e+01	-1.51290639e+02
4.48730469e+01	-1.51962955e+02
4.48974609e+01	-1.53724729e+02
4.49218750e+01	-1.50108035e+02
4.49462891e+01	-1.52545675e+02
4.49707031e+01	-1.48157521e+02
4.49951172e+01	-1.51075570e+02
4.50195312e+01	-1.54584281e+02
4.50439453e+01	-1.59840882e+02
4.50683594e+01	-1.54901240e+02
4.50927734e+01	-1.51658592e+02
4.51171875e+01	-1.50154715e+02
4.51416016e+01	-1.48265582e+02
4.51660156e+01	-1.50748422e+02
4.51904297e+01	-1.47609752e+02
4.52148438e+01	-1.49816942e+02
4.52392578e+01	-1.52845404e+02
4.52636719e+01	-1.57161831e+02
4.52880859e+01	-1.58374093e+02
4.53125000e+01	-1.53536541e+02
4.53369141e+01	-1.53137536e+02
4.53613281e+01	-1.53297140e+02
4.53857422e+01	-1.54819957e+02
4.54101562e+01	-1.54106774e+02
4.54345703e+01	-1.56788307e+02
4.54589844e+01	-1.56948467e+02
4.54833984e+01	-1.57020559e+02
4.55078125e+01	-1.60964058e+02
4.55322266e+01	-1.57875322e+02
4.55566406e+01	-1.52616808e+02
4.55810547e+01	-1.51620911e+02
4.56054688e+01	-1.52623804e+02
4.56298828e+01	-1.49717809e+02
4.56542969e+01	-1.50409563e+02
4.56787109e+01	-1.53776712e+02
4.57031250e+01	-1.52768398e+02
4.57275391e+01	-1.57133250e+02
4.57519531e+01	-1.58045949e+02
4.57763672e+01	-1.53921678e+02
4.58007812e+01	-1.52126210e+02
4.58251953e+01	-1.49624526e+02
4.58496094e+01	-1.47519514e+02
4.58740234e+01	-1.49802118e+02
4.58984375e+01	-1.56215808e+02
4.59228516e+01	-1.54359657e+02
4.59472656e+01	-1.54716322e+02
4.59716797e+01	-1.58661167e+02
4.59960938e+01	-1.57802160e+02
4.60205078e+01	-1.53788825e+02
4.60449219e+01	-1.57995820e+02
4.60693359e+01	-1.59072710e+02
4.60937500e+01	-1.56992736e+02
4.61181641e+01	-1.57157694e+02
4.61425781e+01	-1.55132492e+02
4.61669922e+01	-1.54551487e+02
4.61914062e+01	-1.53180198e+02
4.62158203e+01	-1.50244205e+02
4.62402344e+01	-1.50147745e+02
4.62646484e+01	-1.52142049e+02
4.62890625e+01	-1.46872143e+02
4.63134766e+01	-1.47918982e+02
4.63378906e+01	-1.55085803e+02
4.63623047e+01	-1.53622512e+02
4.63867188e+01	-1.52361768e+02
4.64111328e+01	-1.55233492e+02
4.64355469e+01	-1.51346981e+02
4.64599609e+01	-1.53875397e+02
4.64843750e+01	-1.59194572e+02
4.65087891e+01	-1.51917594e+02
4.65332031e+01	-1.53201641e+02
4.65576172e+01	-1.56327016e+02
4.65820312e+01	-1.55710894e+02
4.66064453e+01	-1.50067851e+02
4.66308594e+01	-1.52427715e+02
4.66552734e+01	-1.53077424e+02
4.66796875e+01	-1.51421121e+02
4.67041016e+01	-1.54404410e+02
4.67285156e+01	-1.56719622e+02
4.67529297e+01	-1.55623537e+02
4.67773438e+01	-1.55734027e+02
4.68017578e+01	-1.56919272e+02
4.68261719e+01	-1.53333351e+02
4.68505859e+01	-1.53740143e+02
4.68750000e+01	-1.55370365e+02
4.68994141e+01	-1.54224390e+02
4.69238281e+01	-1.54170725e+02
4.69482422e+01	-1.52454601e+02
4.69726562e+01	-1.54016319e+02
4.69970703e+01	-1.56892164e+02
4.70214844e+01	-1.56809209e+02
4.70458984e+01	-1.55627946e+02
4.70703125e+01	-1.56166796e+02
4.70947266e+01	-1.55441402e+02
4.71191406e+01	-1.52828962e+02
4.71435547e+01	-1.51199926e+02
4.71679688e+01	-1.50153625e+02
4.71923828e+01	-1.56470136e+02
4.72167969e+01	-1.59919479e+02
4.72412109e+01	-1.59076743e+02
4.72656250e+01	-1.53982591e+02
4.72900391e+01	-1.52797179e+02
4.73144531e+01	-1.53459758e+02
4.73388672e+01	-1.50809795e+02
4.73632812e+01	-1.50742071e+02
4.73876953e+01	-1.49604992e+02
4.74121094e+01	-1.52936055e+02
4.74365234e+01	-1.59519588e+02
4.74609375e+01	-1.66027037e+02
4.74853516e+01	-1.58537577e+02
4.75097656e+01	-1.56582958e+02
4.75341797e+01	-1.56379357e+02
4.75585938e+01	-1.52663876e+02
4.75830078e+01	-1.50993311e+02
4.76074219e+01	-1.49308377e+02
4.76318359e+01	-1.54354888e+02
4.76562500e+01	-1.59957572e+02
4.76806641e+01	-1.58555644e+02
4.77050781e+01	-1.53758931e+02
4.77294922e+01	-1.53662772e+02
4.77539062e+01	-1.53671970e+02
4.77783203e+01	-1.51988185e+02
4.78027344e+01	-1.54911057e+02
4.78271484e+01	-1.62083004e+02
4.78515625e+01	-1.61406116e+02
4.78759766e+01	-1.65126133e+02
4.79003906e+01	-1.62765294e+02
4.79248047e+01	-1.57101334e+02
4.79492188e+01	-1.58660267e+02
4.79736328e+01	-1.56280071e+02
4.79980469e+01	-1.56397806e+02
4.80224609e+01	-1.59478837e+02
4.80468750e+01	-1.56105599e+02
4.80712891e+01	-1.55630531e+02
4.80957031e+01	-1.58990959e+02
4.81201172e+01	-1.59326104e+02
4.81445312e+01	-1.66967084e+02
4.81689453e+01	-1.60492794e+02
4.81933594e+01	-1.57439690e+02
4.82177734e+01	-1.53318809e+02
4.82421875e+01	-1.57877246e+02
4.82666016e+01	-1.61064217e+02
4.82910156e+01	-1.60138115e+02
4.83154297e+01	-1.61497690e+02
4.83398438e+01	-1.61829160e+02
4.83642578e+01	-1.59496475e+02
4.83886719e+01	-1.54419257e+02