scalar
part
         1
quad4
 4.67729e-07
 4.37121e-07
 4.05345e-07
 3.74055e-07
 3.44223e-07
 3.16363e-07
 2.90687e-07
 2.67229e-07
 2.45912e-07
 2.26604e-07
 2.09144e-07
 1.93367e-07
 1.79106e-07
 1.66207e-07
 1.54527e-07
 1.43935e-07
 1.34316e-07
 1.25564e-07
 1.17587e-07
 1.10303e-07
 5.61864e-07
 5.14567e-07
 4.68768e-07
 4.25945e-07
 3.86742e-07
 3.51311e-07
 3.19531e-07
 2.91148e-07
 2.65848e-07
 2.43307e-07
 2.23213e-07
 2.05278e-07
 1.89242e-07
 1.74875e-07
 1.61975e-07
 1.50365e-07
 1.39890e-07
 1.30417e-07
 1.21830e-07
 1.14027e-07
 6.74834e-07
 6.04300e-07
 5.40066e-07
 4.82788e-07
 4.32298e-07
 3.88049e-07
 3.49359e-07
 3.15533e-07
 2.85923e-07
 2.59946e-07
 2.37095e-07
 2.16933e-07
 1.99088e-07
 1.83240e-07
 1.69121e-07
 1.56501e-07
 1.45186e-07
 1.35009e-07
 1.25829e-07
 1.17525e-07
 8.07792e-07
 7.05934e-07
 6.18278e-07
 5.43498e-07
 4.79870e-07
 4.25691e-07
 3.79430e-07
 3.39780e-07
 3.05647e-07
 2.76126e-07
 2.50474e-07
 2.28079e-07
 2.08438e-07
 1.91136e-07
 1.75831e-07
 1.62236e-07
 1.50114e-07
 1.39266e-07
 1.29524e-07
 1.20746e-07
 9.59527e-07
 8.17310e-07
 7.01218e-07
 6.06174e-07
 5.27911e-07
 4.63010e-07
 4.08787e-07
 3.63143e-07
 3.24442e-07
 2.91399e-07
 2.62999e-07
 2.38439e-07
 2.17075e-07
 1.98390e-07
 1.81965e-07
 1.67456e-07
 1.54583e-07
 1.43114e-07
 1.32854e-07
 1.23642e-07
 1.12482e-06
 9.33758e-07
 7.85185e-07
 6.68016e-07
 5.74335e-07
 4.98463e-07
 4.36283e-07
 3.84769e-07
 3.41666e-07
 3.05275e-07
 2.74296e-07
 2.47724e-07
 2.24775e-07
 2.04826e-07
 1.87385e-07
 1.72053e-07
 1.58506e-07
 1.46481e-07
 1.35760e-07
 1.26164e-07
 1.29296e-06
 1.04768e-06
 8.64926e-07
 7.25395e-07
 6.16618e-07
 5.30274e-07
 4.60654e-07
 4.03741e-07
 3.56649e-07
 3.17260e-07
 2.83995e-07
 2.55655e-07
 2.31322e-07
 2.10278e-07
 1.91961e-07
 1.75922e-07
 1.61800e-07
 1.49302e-07
 1.38191e-07
 1.28270e-07
 1.44750e-06
 1.14893e-06
 9.34033e-07
 7.74172e-07
 6.52023e-07
 5.56590e-07
 4.80620e-07
 4.19162e-07
 3.68748e-07
 3.26886e-07
 2.91749e-07
 2.61972e-07
 2.36520e-07
 2.14595e-07
 1.95577e-07
 1.78973e-07
 1.64393e-07
 1.51521e-07
 1.40101e-07
 1.29922e-07
 1.56849e-06
 1.22624e-06
 9.85850e-07
 8.10252e-07
 6.77940e-07
 5.75701e-07
 4.95027e-07
 4.30235e-07
 3.77402e-07
 3.33750e-07
 2.97265e-07
 2.66457e-07
 2.40206e-07
 2.17653e-07
 1.98136e-07
 1.81132e-07
 1.66227e-07
 1.53090e-07
 1.41451e-07
 1.31091e-07
 1.63733e-06
 1.26969e-06
 1.01476e-06
 8.30283e-07
 6.92289e-07
 5.86265e-07
 5.02989e-07
 4.36356e-07
 3.82191e-07
 3.37554e-07
 3.00327e-07
 2.68953e-07
 2.42261e-07
 2.19363e-07
 1.99570e-07
 1.82345e-07
 1.67261e-07
 1.53977e-07
 1.42217e-07
 1.31756e-07
 1.64239e-06
 1.27331e-06
 1.01743e-06
 8.32318e-07
 6.93873e-07
 5.87523e-07
 5.04005e-07
 4.37188e-07
 3.82880e-07
 3.38131e-07
 3.00816e-07
 2.69370e-07
 2.42620e-07
 2.19674e-07
 1.99842e-07
 1.82583e-07
 1.67471e-07
 1.54163e-07
 1.42382e-07
 1.31904e-07
 1.58304e-06
 1.23672e-06
 9.93657e-07
 8.16222e-07
 6.82606e-07
 5.79414e-07
 4.98031e-07
 4.32698e-07
 3.79447e-07
 3.35466e-07
 2.98718e-07
 2.67699e-07
 2.41275e-07
 2.18580e-07
 1.98945e-07
 1.81842e-07
 1.66854e-07
 1.53646e-07
 1.41946e-07
 1.31534e-07
 1.46988e-06
 1.16533e-06
 9.46387e-07
 7.83699e-07
 6.59516e-07
 5.62586e-07
 4.85489e-07
 4.23169e-07
 3.72083e-07
 3.29691e-07
 2.94129e-07
 2.64009e-07
 2.38276e-07
 2.16120e-07
 1.96909e-07
 1.80144e-07
 1.65427e-07
 1.52439e-07
 1.40919e-07
 1.30655e-07
 1.32104e-06
 1.06868e-06
 8.80982e-07
 7.37920e-07
 6.26560e-07
 5.38286e-07
 4.67199e-07
 4.09153e-07
 3.61172e-07
 3.21077e-07
 2.87243e-07
 2.58442e-07
 2.33730e-07
 2.12373e-07
 1.93794e-07
 1.77535e-07
 1.63226e-07
 1.50570e-07
 1.39322e-07
 1.29283e-07
 1.15641e-06
 9.57915e-07
 8.03985e-07
 6.82884e-07
 5.86267e-07
 5.08166e-07
 4.44268e-07
 3.91411e-07
 3.47246e-07
 3.10004e-07
 2.78336e-07
 2.51201e-07
 2.27787e-07
 2.07453e-07
 1.89688e-07
 1.74083e-07
 1.60304e-07
 1.48081e-07
 1.37190e-07
 1.27447e-07
 9.92715e-07
 8.43286e-07
 7.21815e-07
 6.22712e-07
 5.41347e-07
 4.74048e-07
 4.17947e-07
 3.70818e-07
 3.30928e-07
 2.96923e-07
 2.67739e-07
 2.42534e-07
 2.20635e-07
 2.01503e-07
 1.84702e-07
 1.69874e-07
 1.56729e-07
 1.45027e-07
 1.34566e-07
 1.25180e-07
 8.41085e-07
 7.32603e-07
 6.39831e-07
 5.61078e-07
 4.94342e-07
 4.37710e-07
 3.89497e-07
 3.48280e-07
 3.12878e-07
 2.82321e-07
 2.55817e-07
 2.32715e-07
 2.12483e-07
 1.94685e-07
 1.78959e-07
 1.65007e-07
 1.52579e-07
 1.41468e-07
 1.31498e-07
 1.22523e-07
 7.07185e-07
 6.30795e-07
 5.61883e-07
 5.00867e-07
 4.47381e-07
 4.00718e-07
 3.60074e-07
 3.24656e-07
 2.93739e-07
 2.66684e-07
 2.42937e-07
 2.22026e-07
 2.03550e-07
 1.87170e-07
 1.72597e-07
 1.59589e-07
 1.47940e-07
 1.37475e-07
 1.28045e-07
 1.19522e-07
 5.92618e-07
 5.40281e-07
 4.90323e-07
 4.44083e-07
 4.02076e-07
 3.64340e-07
 3.30660e-07
 3.00704e-07
 2.74097e-07
 2.50465e-07
 2.29454e-07
 2.10746e-07
 1.94055e-07
 1.79130e-07
 1.65751e-07
 1.53730e-07
 1.42900e-07
 1.33119e-07
 1.24263e-07
 1.16225e-07
 4.96537e-07
 4.61665e-07
 4.26265e-07
 3.91918e-07
 3.59519e-07
 3.29505e-07
 3.02024e-07
 2.77048e-07
 2.54453e-07
 2.34064e-07
 2.15689e-07
 1.99131e-07
 1.84203e-07
 1.70731e-07
 1.58558e-07
 1.47539e-07
 1.37549e-07
 1.28473e-07
 1.20214e-07
 1.12682e-07
