# vtk DataFile Version 2.0
gauge_2
ASCII
DATASET POLYDATA
POINTS 99 double
0.2 0.0314993 0.005
0.2 0.0329993 0.005
0.2 0.0344993 0.005
0.2 0.0359992 0.005
0.2 0.0374992 0.005
0.2 0.0389992 0.005
0.2 0.0404991 0.005
0.2 0.0419991 0.005
0.2 0.0434991 0.005
0.2 0.044999 0.005
0.2 0.046499 0.005
0.2 0.047999 0.005
0.2 0.0511894 0.005
0.2 0.0543799 0.005
0.2 0.0575704 0.005
0.2 0.0607609 0.005
0.2 0.0639514 0.005
0.2 0.0671419 0.005
0.2 0.0703323 0.005
0.2 0.0735228 0.005
0.2 0.0767133 0.005
0.2 0.0799038 0.005
0.2 0.0830943 0.005
0.2 0.0862847 0.005
0.2 0.0894752 0.005
0.2 0.0926657 0.005
0.2 0.0958562 0.005
0.2 0.0990467 0.005
0.2 0.102237 0.005
0.2 0.105428 0.005
0.2 0.111809 0.005
0.2 0.11819 0.005
0.2 0.124571 0.005
0.2 0.137332 0.005
0.2 0.150094 0.005
0.2 0.162856 0.005
0.2 0.175618 0.005
0.2 0.18838 0.005
0.2 0.201142 0.005
0.2 0.213904 0.005
0.2 0.226666 0.005
0.2 0.239428 0.005
0.2 0.245809 0.005
0.2 0.25219 0.005
0.2 0.25538 0.005
0.2 0.258571 0.005
0.2 0.261761 0.005
0.2 0.264952 0.005
0.2 0.268142 0.005
0.2 0.271333 0.005
0.2 0.274523 0.005
0.2 0.277714 0.005
0.2 0.280904 0.005
0.2 0.284095 0.005
0.2 0.287285 0.005
0.2 0.290476 0.005
0.2 0.293666 0.005
0.2 0.296857 0.005
0.2 0.300047 0.005
0.2 0.303238 0.005
0.2 0.306428 0.005
0.2 0.309619 0.005
0.2 0.312809 0.005
0.2 0.315999 0.005
0.2 0.31919 0.005
0.2 0.32238 0.005
0.2 0.325571 0.005
0.2 0.328761 0.005
0.2 0.331952 0.005
0.2 0.335142 0.005
0.2 0.338333 0.005
0.2 0.341523 0.005
0.2 0.344714 0.005
0.2 0.347904 0.005
0.2 0.351095 0.005
0.2 0.354285 0.005
0.2 0.357476 0.005
0.2 0.360666 0.005
0.2 0.363857 0.005
0.2 0.367047 0.005
0.2 0.370238 0.005
0.2 0.373428 0.005
0.2 0.376619 0.005
0.2 0.379809 0.005
0.2 0.38619 0.005
0.2 0.392571 0.005
0.2 0.405333 0.005
0.2 0.418095 0.005
0.2 0.430857 0.005
0.2 0.443619 0.005
0.2 0.456381 0.005
0.2 0.469143 0.005
0.2 0.481905 0.005
0.2 0.494666 0.005
0.2 0.507428 0.005
0.2 0.52019 0.005
0.2 0.532952 0.005
0.2 0.545714 0.005
0.2 0.558476 0.005
POINT_DATA 99
 FIELD attributes 1
alpha.water 1 99 float
1 1 1 1 1 1 1 1 1 1 1 1 1 0.999999 0.999979 0.996403 0.995356 0.623328 0.179329 3.09436e-09 1.79662e-06 2.5831e-05 0.000244113 0.000559156 4.27483e-06 0.000629233 0.000328923 4.89854e-05 0.000181485 0.000354324 0.000377997 0.000173672 8.67488e-05 0.00019537 0.000197693 9.39938e-05 5.01199e-05 8.48245e-05 0.000163625 0.000194257 0.000140913 2.57338e-05 4.53991e-06 6.05183e-08 1.33371e-07 4.2002e-05 0.000231075 0.000413311 8.45281e-06 0.000455696 0.000477774 0.000570786 0.000221761 0.000870561 0.000877046 0.000554973 0.00524072 0.00867585 0.0101075 0.00941417 0.0177602 0.003989 0.00070152 0.000597689 -8.72021e-05 0.000853935 0.00120886 0.0022132 0.00478494 0.00254996 0.00219385 0.0013082 0.000179453 0.00129871 0.00229283 0.00205073 0.000772984 0.00103118 0.00107442 0.00109341 -0.000118715 0.000727259 0.000360636 0.000273447 0.000157891 0.000229699 0.00019593 0.00011844 0.000155424 0.00010684 1.97315e-05 2.14157e-06 2.78883e-06 6.47923e-07 3.95666e-12 1.55169e-15 1.13984e-15 -7.35245e-19 -6.58122e-25
