scalar
part
         1
quad4
 4.87406e-07
 4.54864e-07
 4.21262e-07
 3.88298e-07
 3.56963e-07
 3.27769e-07
 3.00918e-07
 2.76428e-07
 2.54207e-07
 2.34107e-07
 2.15952e-07
 1.99562e-07
 1.84762e-07
 1.71386e-07
 1.59282e-07
 1.48314e-07
 1.38359e-07
 1.29306e-07
 1.21059e-07
 1.13533e-07
 5.85105e-07
 5.35091e-07
 4.86842e-07
 4.41861e-07
 4.00782e-07
 3.63732e-07
 3.30559e-07
 3.00977e-07
 2.74644e-07
 2.51210e-07
 2.30343e-07
 2.11735e-07
 1.95111e-07
 1.80229e-07
 1.66875e-07
 1.54863e-07
 1.44033e-07
 1.34243e-07
 1.25373e-07
 1.17316e-07
 7.02274e-07
 6.27962e-07
 5.60485e-07
 5.00463e-07
 4.47666e-07
 4.01481e-07
 3.61163e-07
 3.25964e-07
 2.95189e-07
 2.68220e-07
 2.44519e-07
 2.23626e-07
 2.05147e-07
 1.88748e-07
 1.74147e-07
 1.61103e-07
 1.49414e-07
 1.38906e-07
 1.29431e-07
 1.20863e-07
 8.40049e-07
 7.33023e-07
 6.41152e-07
 5.62949e-07
 4.96539e-07
 4.40087e-07
 3.91957e-07
 3.50759e-07
 3.15333e-07
 2.84726e-07
 2.58153e-07
 2.34973e-07
 2.14657e-07
 1.96772e-07
 1.80959e-07
 1.66921e-07
 1.54410e-07
 1.43218e-07
 1.33171e-07
 1.24122e-07
 9.97064e-07
 8.47953e-07
 7.26522e-07
 6.27317e-07
 5.45777e-07
 4.78268e-07
 4.21944e-07
 3.74590e-07
 3.34480e-07
 3.00265e-07
 2.70882e-07
 2.45490e-07
 2.23417e-07
 2.04123e-07
 1.87170e-07
 1.72202e-07
 1.58928e-07
 1.47105e-07
 1.36532e-07
 1.27042e-07
 1.16773e-06
 9.67798e-07
 8.12697e-07
 6.90631e-07
 5.93206e-07
 5.14422e-07
 4.49938e-07
 3.96573e-07
 3.51965e-07
 3.14335e-07
 2.82324e-07
 2.54884e-07
 2.31199e-07
 2.10621e-07
 1.92638e-07
 1.76835e-07
 1.62878e-07
 1.50493e-07
 1.39454e-07
 1.29576e-07
 1.34068e-06
 1.08456e-06
 8.94177e-07
 7.49112e-07
 6.36207e-07
 5.46710e-07
 4.74632e-07
 4.15768e-07
 3.67103e-07
 3.26428e-07
 2.92097e-07
 2.62867e-07
 2.37782e-07
 2.16097e-07
 1.97229e-07
 1.80713e-07
 1.66176e-07
 1.53316e-07
 1.41884e-07
 1.31679e-07
 1.49858e-06
 1.18761e-06
 9.64298e-07
 7.98476e-07
 6.71957e-07
 5.73231e-07
 4.94717e-07
 4.31256e-07
 3.79236e-07
 3.36067e-07
 2.99852e-07
 2.69176e-07
 2.42967e-07
 2.20398e-07
 2.00827e-07
 1.83747e-07
 1.68751e-07
 1.55516e-07
 1.43776e-07
 1.33315e-07
 1.62065e-06
 1.26531e-06
 1.01621e-06
 8.34525e-07
 6.97793e-07
 5.92240e-07
 5.09021e-07
 4.42229e-07
 3.87797e-07
 3.42846e-07
 3.05291e-07
 2.73592e-07
 2.46590e-07
 2.23400e-07
 2.03336e-07
 1.85859e-07
 1.70544e-07
 1.57047e-07
 1.45092e-07
 1.34453e-07
 1.68782e-06
 1.30755e-06
 1.04422e-06
 8.53881e-07
 7.11620e-07
 6.02395e-07
 5.16654e-07
 4.48084e-07
 3.92366e-07
 3.46467e-07
 3.08200e-07
 2.75957e-07
 2.48533e-07
 2.25013e-07
 2.04686e-07
 1.86999e-07
 1.71513e-07
 1.57877e-07
 1.45807e-07
 1.35072e-07
 1.68875e-06
 1.30852e-06
 1.04511e-06
 8.54654e-07
 7.12282e-07
 6.02959e-07
 5.17135e-07
 4.48494e-07
 3.92718e-07
 3.46770e-07
 3.08463e-07
 2.76186e-07
 2.48734e-07
 2.25189e-07
 2.04842e-07
 1.87138e-07
 1.71637e-07
 1.57988e-07
 1.45906e-07
 1.35161e-07
 1.62367e-06
 1.26829e-06
 1.01889e-06
 8.36840e-07
 6.99768e-07
 5.93920e-07
 5.10451e-07
 4.43450e-07
 3.88845e-07
 3.43750e-07
 3.06075e-07
 2.74275e-07
 2.47188e-07
 2.23926e-07
 2.03801e-07
 1.86273e-07
 1.70913e-07
 1.57378e-07
 1.45389e-07
 1.34720e-07
 1.50422e-06
 1.19277e-06
 9.68788e-07
 8.02311e-07
 6.75212e-07
 5.75992e-07
 4.97066e-07
 4.33263e-07
 3.80959e-07
 3.37554e-07
 3.01142e-07
 2.70302e-07
 2.43953e-07
 2.21267e-07
 2.01596e-07
 1.84430e-07
 1.69361e-07
 1.56062e-07
 1.44267e-07
 1.33757e-07
 1.34930e-06
 1.09197e-06
 9.00452e-07
 7.54406e-07
 6.40675e-07
 5.50492e-07
 4.77848e-07
 4.18517e-07
 3.69465e-07
 3.28469e-07
 2.93871e-07
 2.64416e-07
 2.39141e-07
 2.17295e-07
 1.98291e-07
 1.81658e-07
 1.67019e-07
 1.54071e-07
 1.42564e-07
 1.32293e-07
 1.17925e-06
 9.77328e-07
 8.20624e-07
 6.97260e-07
 5.98781e-07
 5.19136e-07
 4.53948e-07
 4.00005e-07
 3.54919e-07
 3.16892e-07
 2.84549e-07
 2.56831e-07
 2.32909e-07
 2.12132e-07
 1.93977e-07
 1.78028e-07
 1.63944e-07
 1.51449e-07
 1.40316e-07
 1.30354e-07
 1.01096e-06
 8.59267e-07
 7.35856e-07
 6.35095e-07
 5.52313e-07
 4.83800e-07
 4.26658e-07
 3.78632e-07
 3.37967e-07
 3.03290e-07
 2.73520e-07
 2.47802e-07
 2.25453e-07
 2.05924e-07
 1.88770e-07
 1.73629e-07
 1.60205e-07
 1.48252e-07
 1.37566e-07
 1.27978e-07
 8.55549e-07
 7.45641e-07
 6.51567e-07
 5.71642e-07
 5.03860e-07
 4.46300e-07
 3.97268e-07
 3.55327e-07
 3.19286e-07
 2.88164e-07
 2.61160e-07
 2.37614e-07
 2.16989e-07
 1.98839e-07
 1.82799e-07
 1.68565e-07
 1.55884e-07
 1.44544e-07
 1.34368e-07
 1.25206e-07
 7.18601e-07
 6.41371e-07
 5.71628e-07
 5.09815e-07
 4.55582e-07
 4.08231e-07
 3.66957e-07
 3.30967e-07
 2.99534e-07
 2.72013e-07
 2.47847e-07
 2.26558e-07
 2.07742e-07
 1.91054e-07
 1.76204e-07
 1.62945e-07
 1.51069e-07
 1.40397e-07
 1.30779e-07
 1.22085e-07
 6.01610e-07
 5.48831e-07
 4.98378e-07
 4.51623e-07
 4.09103e-07
 3.70870e-07
 3.36720e-07
 3.06323e-07
 2.79307e-07
 2.55298e-07
 2.33941e-07
 2.14916e-07
 1.97935e-07
 1.82745e-07
 1.69125e-07
 1.56883e-07
 1.45851e-07
 1.35885e-07
 1.26860e-07
 1.18666e-07
 5.03616e-07
 4.68563e-07
 4.32903e-07
 3.98247e-07
 3.65515e-07
 3.35158e-07
 3.07335e-07
 2.82028e-07
 2.59116e-07
 2.38428e-07
 2.19771e-07
 2.02951e-07
 1.87780e-07
 1.74083e-07
 1.61701e-07
 1.50490e-07
 1.40322e-07
 1.31083e-07
 1.22672e-07
 1.14999e-07
