# Force         
# CofR          : (2.00000000e-01 1.50000000e-01 -1.00000000e-02)
#
# Time          	total_x total_y total_z	pressure_x pressure_y pressure_z	viscous_x viscous_y viscous_z
100              3.48177052e-07 4.71571211e-08 -3.47063932e-23 2.60087109e-07 4.03511324e-08 -3.06171236e-23 8.80899432e-08 6.80598879e-09 -4.08926959e-24
101              3.48819749e-07 2.59102920e-08 -3.53888495e-23 2.60498723e-07 2.02255101e-08 -3.03420794e-23 8.83210265e-08 5.68478190e-09 -5.04677018e-24
102              3.48622086e-07 -8.59588253e-09 -3.62653453e-23 2.60199094e-07 -1.05306144e-08 -2.90598534e-23 8.84229912e-08 1.93473184e-09 -7.20549186e-24
103              3.49524539e-07 -4.17519273e-08 -3.69524200e-23 2.60961454e-07 -3.87995442e-08 -2.74505214e-23 8.85630850e-08 -2.95238305e-09 -9.50189862e-24
104              3.51802296e-07 -5.82153000e-08 -3.68886609e-23 2.62939855e-07 -5.13884528e-08 -2.67820720e-23 8.88624413e-08 -6.82684711e-09 -1.01065890e-23
105              3.53368982e-07 -4.93071806e-08 -3.60397402e-23 2.64192401e-07 -4.14587855e-08 -2.74756921e-23 8.91765810e-08 -7.84839508e-09 -8.56404811e-24
106              3.53003101e-07 -1.75993481e-08 -3.49276889e-23 2.63705449e-07 -1.22204083e-08 -2.90249355e-23 8.92976527e-08 -5.37893981e-09 -5.90275344e-24
107              3.52518210e-07 2.39019535e-08 -3.41420477e-23 2.63212053e-07 2.42387840e-08 -3.06610959e-23 8.93061566e-08 -3.36830485e-10 -3.48095180e-24
108              3.54086726e-07 5.67506176e-08 -3.40188817e-23 2.64621923e-07 5.16269913e-08 -3.18371362e-23 8.94648029e-08 5.12362634e-09 -2.18174553e-24
109              3.56595179e-07 6.52156369e-08 -3.44583323e-23 2.66795657e-07 5.67119866e-08 -3.24906300e-23 8.97995228e-08 8.50365028e-09 -1.96770231e-24
110              3.57189600e-07 4.43574961e-08 -3.52716155e-23 2.67165115e-07 3.62003748e-08 -3.23174253e-23 9.00244850e-08 8.15712131e-09 -2.95419023e-24
111              3.55859808e-07 2.50669379e-09 -3.62743846e-23 2.65858265e-07 -1.58391447e-09 -3.10716593e-23 9.00015421e-08 4.09060826e-09 -5.20272527e-24
112              3.55786286e-07 -4.22840060e-08 -3.71695349e-23 2.65807763e-07 -4.02777492e-08 -2.91668500e-23 8.99785231e-08 -2.00625680e-09 -8.00268485e-24
113              3.58209848e-07 -6.93736341e-08 -3.74191586e-23 2.67991976e-07 -6.19637122e-08 -2.77177680e-23 9.02178728e-08 -7.40992196e-09 -9.70139057e-24
114              3.60248891e-07 -6.54649385e-08 -3.66501939e-23 2.69698095e-07 -5.58746503e-08 -2.78439559e-23 9.05507969e-08 -9.59028823e-09 -8.80623807e-24
115              3.59389066e-07 -3.16562684e-08 -3.52729557e-23 2.68764181e-07 -2.41976673e-08 -2.94481648e-23 9.06248844e-08 -7.45860110e-09 -5.82479088e-24
116              3.57756343e-07 1.76296114e-08 -3.40789037e-23 2.67269377e-07 1.94932965e-08 -3.15498359e-23 9.04869661e-08 -1.86368513e-09 -2.52906782e-24
117              3.58799937e-07 6.03656155e-08 -3.36861547e-23 2.68275624e-07 5.56167915e-08 -3.31201976e-23 9.05243130e-08 4.74882401e-09 -5.65957100e-25
118              3.61715498e-07 7.63365340e-08 -3.41720161e-23 2.70870901e-07 6.69943902e-08 -3.37621130e-23 9.08445971e-08 9.34214385e-09 -4.09903107e-25
119              3.62462317e-07 5.76646312e-08 -3.51405792e-23 2.71385290e-07 4.79161899e-08 -3.35000984e-23 9.10770261e-08 9.74844126e-09 -1.64048080e-24
120              3.60366590e-07 1.23994446e-08 -3.62633539e-23 2.69393740e-07 6.68187739e-09 -3.22260612e-23 9.09728497e-08 5.71756722e-09 -4.03729269e-24
121              3.59379492e-07 -3.96240033e-08 -3.72792362e-23 2.68562830e-07 -3.86075282e-08 -3.02165885e-23 9.08166622e-08 -1.01647511e-09 -7.06264769e-24
122              3.61735796e-07 -7.44889388e-08 -3.77012919e-23 2.70748739e-07 -6.70703541e-08 -2.84149535e-23 9.09870564e-08 -7.41858470e-09 -9.28633844e-24
123              3.64152645e-07 -7.55083449e-08 -3.70564154e-23 2.72823065e-07 -6.50041162e-08 -2.80649598e-23 9.13295804e-08 -1.05042288e-08 -8.99145552e-24
124              3.63171989e-07 -4.21173923e-08 -3.55909399e-23 2.71779894e-07 -3.32939090e-08 -2.95134388e-23 9.13920945e-08 -8.82348332e-09 -6.07750112e-24
125              3.60724527e-07 1.09883875e-08 -3.41554198e-23 2.69562833e-07 1.40797234e-08 -3.18163942e-23 9.11616946e-08 -3.09133589e-09 -2.33902557e-24
126              3.61234873e-07 6.00391990e-08 -3.35212209e-23 2.70135676e-07 5.58868776e-08 -3.37130309e-23 9.10991971e-08 4.15232134e-09 1.91810016e-25
127              3.64318942e-07 8.19629906e-08 -3.39459259e-23 2.72926060e-07 7.23870055e-08 -3.44789974e-23 9.13928828e-08 9.57598513e-09 5.33071523e-25
128              3.65377665e-07 6.63981006e-08 -3.50018367e-23 2.73734771e-07 5.57523591e-08 -3.41716899e-23 9.16428934e-08 1.06457415e-08 -8.30146725e-25
129              3.62938856e-07 2.05071028e-08 -3.62060127e-23 2.71430021e-07 1.36421029e-08 -3.28861807e-23 9.15088356e-08 6.86499996e-09 -3.31983195e-24
130              3.61265098e-07 -3.53650567e-08 -3.73029126e-23 2.70000916e-07 -3.52660286e-08 -3.08401563e-23 9.12641818e-08 -9.90280466e-11 -6.46275625e-24
131              3.63365090e-07 -7.56400185e-08 -3.78365209e-23 2.71994886e-07 -6.85423597e-08 -2.88716480e-23 9.13702040e-08 -7.09765872e-09 -8.96487289e-24
132              3.66110553e-07 -8.12310861e-08 -3.73062631e-23 2.74394176e-07 -7.03576952e-08 -2.82070729e-23 9.17163773e-08 -1.08733909e-08 -9.09919016e-24
133              3.65259650e-07 -4.97274689e-08 -3.58389177e-23 2.73466306e-07 -4.00432242e-08 -2.94535266e-23 9.17933436e-08 -9.68424466e-09 -6.38539105e-24
134              3.62355475e-07 4.64930927e-09 -3.42701707e-23 2.70834549e-07 8.71645500e-09 -3.18132935e-23 9.15209257e-08 -4.06714573e-09 -2.45687720e-24
135              3.62328670e-07 5.75260893e-08 -3.34614128e-23 2.70945020e-07 5.40570247e-08 -3.39081622e-23 9.13836503e-08 3.46906459e-09 4.46749420e-25
136              3.65444739e-07 8.41813863e-08 -3.37852578e-23 2.73798381e-07 7.47211979e-08 -3.48330640e-23 9.16463585e-08 9.46018843e-09 1.04780618e-24
137              3.66853907e-07 7.21571259e-08 -3.48588636e-23 2.74935124e-07 6.10415087e-08 -3.45625784e-23 9.19187828e-08 1.11156172e-08 -2.96285135e-25
138              3.64381740e-07 2.72694159e-08 -3.61086703e-23 2.72592678e-07 1.95712573e-08 -3.33016515e-23 9.17890623e-08 7.69815857e-09 -2.80701878e-24
139              3.62196281e-07 -3.04263951e-08 -3.72620671e-23 2.70703169e-07 -3.11665515e-08 -3.12531347e-23 9.14931122e-08 7.40156337e-10 -6.00893234e-24
140              3.63994751e-07 -7.46137070e-08 -3.78904656e-23 2.72452004e-07 -6.80035313e-08 -2.91847909e-23 9.15427471e-08 -6.61017575e-09 -8.70567476e-24
141              3.66957884e-07 -8.43927994e-08 -3.74684283e-23 2.75071655e-07 -7.34583850e-08 -2.82956092e-23 9.18862281e-08 -1.09344144e-08 -9.17281903e-24
142              3.66399464e-07 -5.55680878e-08 -3.60365318e-23 2.74406874e-07 -4.53215910e-08 -2.93497004e-23 9.19925899e-08 -1.02464968e-08 -6.68683148e-24
143              3.63275059e-07 -1.38744738e-09 -3.43973373e-23 2.71564000e-07 3.49344999e-09 -3.16894274e-23 9.17110594e-08 -4.88089737e-09 -2.70790989e-24
144              3.62765379e-07 5.38952590e-08 -3.34544313e-23 2.71246554e-07 5.11389777e-08 -3.39117459e-23 9.15188250e-08 2.75628128e-09 4.57314592e-25
145              3.65803482e-07 8.45234996e-08 -3.36714190e-23 2.74055671e-07 7.53648909e-08 -3.49821949e-23 9.17478108e-08 9.15860870e-09 1.31077581e-24
146              3.67561495e-07 7.61805639e-08 -3.47237487e-23 2.75519052e-07 6.48348198e-08 -3.47913645e-23 9.20424426e-08 1.13457440e-08 6.76157618e-26
147              3.65244258e-07 3.31718121e-08 -3.59949294e-23 2.73307419e-07 2.48251119e-08 -3.35881840e-23 9.19368387e-08 8.34670011e-09 -2.40674544e-24
148              3.62685925e-07 -2.51908222e-08 -3.71877592e-23 2.71072485e-07 -2.67144711e-08 -3.15615617e-23 9.16134400e-08 1.52364895e-09 -5.62619744e-24
149              3.64110896e-07 -7.23796861e-08 -3.78989358e-23 2.72498913e-07 -6.63413853e-08 -2.94229496e-23 9.16119827e-08 -6.03830080e-09 -8.47598615e-24
150              3.67250936e-07 -8.61047826e-08 -3.75849039e-23 2.75302560e-07 -7.52785373e-08 -2.83554891e-23 9.19483762e-08 -1.08262453e-08 -9.22941476e-24
151              3.67048060e-07 -6.03605540e-08 -3.62108590e-23 2.74958514e-07 -4.97219070e-08 -2.92204648e-23 9.20895469e-08 -1.06386470e-08 -6.99039416e-24
152              3.63861054e-07 -7.17798173e-09 -3.45320942e-23 2.72042869e-07 -1.58129612e-09 -3.15087163e-23 9.18181853e-08 -5.59668561e-09 -3.02337793e-24
153              3.62912986e-07 4.96861670e-08 -3.34798802e-23 2.71328969e-07 4.76525198e-08 -3.38166327e-23 9.15840169e-08 2.03364720e-09 3.36752485e-25
154              3.65802455e-07 8.38009374e-08 -3.35853396e-23 2.74025249e-07 7.50459401e-08 -3.50267790e-23 9.17772062e-08 8.75499727e-09 1.44143948e-24
155              3.67879519e-07 7.91989381e-08 -3.45991011e-23 2.75788968e-07 6.77607241e-08 -3.49290605e-23 9.20905505e-08 1.14382140e-08 3.29959379e-25
156              3.65815065e-07 3.85283470e-08 -3.58769926e-23 2.73795694e-07 2.96430920e-08 -3.38010517e-23 9.20193706e-08 8.88525502e-09 -2.07594090e-24
157              3.62991640e-07 -1.98336100e-08 -3.70965848e-23 2.71307486e-07 -2.21030558e-08 -3.18194284e-23 9.16841533e-08 2.26944576e-09 -5.27715634e-24
158              3.64018053e-07 -6.94548824e-08 -3.78816731e-23 2.72383311e-07 -6.40347530e-08 -2.96320464e-23 9.16347422e-08 -5.42012938e-09 -8.24962673e-24
159              3.67253335e-07 -8.69495947e-08 -3.76762718e-23 2.75294585e-07 -7.63315955e-08 -2.84056247e-23 9.19587498e-08 -1.06179992e-08 -9.27064703e-24
160              3.67456059e-07 -6.45065029e-08 -3.63724943e-23 2.75320083e-07 -5.35792432e-08 -2.90862484e-23 9.21359757e-08 -1.09272597e-08 -7.28624582e-24
161              3.64302789e-07 -1.27725234e-08 -3.46721361e-23 2.72416558e-07 -6.52270096e-09 -3.13020495e-23 9.18862311e-08 -6.24982244e-09 -3.37008661e-24
162              3.62941515e-07 4.51437417e-08 -3.35216007e-23 2.71322409e-07 4.38361404e-08 -3.36745471e-23 9.16191062e-08 1.30760122e-09 1.52946423e-25
163              3.65605542e-07 8.24071545e-08 -3.35195205e-23 2.73832229e-07 7.41188031e-08 -3.50114176e-23 9.17733136e-08 8.28835136e-09 1.49189706e-24
164              3.67981556e-07 8.15666176e-08 -3.44805290e-23 2.75880571e-07 7.01242551e-08 -3.50192511e-23 9.21009853e-08 1.14423625e-08 5.38722086e-25
165              3.66236034e-07 4.35431375e-08 -3.57574875e-23 2.74166669e-07 3.41909256e-08 -3.39744131e-23 9.20693656e-08 9.35221185e-09 -1.78307437e-24
166              3.63217396e-07 -1.43899858e-08 -3.69972733e-23 2.71485730e-07 -1.73804008e-08 -3.20462938e-23 9.17316656e-08 2.99041498e-09 -4.95097953e-24
167              3.63838378e-07 -6.60931815e-08 -3.78495840e-23 2.72200306e-07 -6.13207810e-08 -2.98274998e-23 9.16380721e-08 -4.77240057e-09 -8.02208415e-24
168              3.67109367e-07 -8.72092812e-08 -3.77499816e-23 2.75164662e-07 -7.68666375e-08 -2.84591701e-23 9.19447047e-08 -1.03426436e-08 -9.29081145e-24
169              3.67706496e-07 -6.82287111e-08 -3.65278200e-23 2.75550208e-07 -5.70837687e-08 -2.89500758e-23 9.21562885e-08 -1.11449425e-08 -7.57774416e-24
170              3.64675913e-07 -1.82378531e-08 -3.48175430e-23 2.72739908e-07 -1.13792743e-08 -3.10830819e-23 9.19360049e-08 -6.85857883e-09 -3.73446112e-24
171              3.62930953e-07 4.03597937e-08 -3.35817050e-23 2.71289288e-07 3.97800441e-08 -3.34999099e-23 9.16416653e-08 5.79749604e-10 -8.17950512e-26
172              3.65334940e-07 8.05499629e-08 -3.34658264e-23 2.73578991e-07 7.27728306e-08 -3.49650579e-23 9.17559489e-08 7.77713229e-09 1.49923154e-24
173              3.67980145e-07 8.34484937e-08 -3.43684526e-23 2.75887740e-07 7.20665033e-08 -3.50809996e-23 9.20924046e-08 1.13819904e-08 7.12546985e-25
174              3.66597568e-07 4.82718825e-08 -3.56388157e-23 2.74494407e-07 3.85068716e-08 -3.41242316e-23 9.21031617e-08 9.76501092e-09 -1.51458414e-24
175              3.63426736e-07 -8.93082252e-09 -3.68944439e-23 2.71656466e-07 -1.26211901e-08 -3.22570953e-23 9.17702705e-08 3.69036757e-09 -4.63734864e-24
176              3.63640131e-07 -6.23883672e-08 -3.78049005e-23 2.72004754e-07 -5.82852085e-08 -3.00226692e-23 9.16353776e-08 -4.10315876e-09 -7.78223129e-24
177              3.66895667e-07 -8.70211125e-08 -3.78108387e-23 2.74975909e-07 -7.70058950e-08 -2.85242047e-23 9.19197586e-08 -1.00152175e-08 -9.28663396e-24
178              3.67904705e-07 -7.15724917e-08 -3.66749733e-23 2.75741346e-07 -6.02667548e-08 -2.88295188e-23 9.21633593e-08 -1.13057369e-08 -7.84545450e-24
179              3.65005257e-07 -2.36125070e-08 -3.49681619e-23 2.73029501e-07 -1.61809665e-08 -3.08576168e-23 9.19757551e-08 -7.43154049e-09 -4.11054512e-24
180              3.62938310e-07 3.53895118e-08 -3.36516516e-23 2.71277052e-07 3.55374090e-08 -3.33125856e-23 9.16612583e-08 -1.47897155e-10 -3.39065974e-25
181              3.65030474e-07 7.83019354e-08 -3.34257507e-23 2.73296704e-07 7.10719670e-08 -3.48932632e-23 9.17337704e-08 7.22996833e-09 1.46751249e-24
182              3.67909381e-07 8.49566753e-08 -3.42591613e-23 2.75835337e-07 7.36882574e-08 -3.51279480e-23 9.20740436e-08 1.12684179e-08 8.68786724e-25
183              3.66898173e-07 5.27622065e-08 -3.55194913e-23 2.74771148e-07 4.26306950e-08 -3.42594127e-23 9.21270244e-08 1.01315114e-08 -1.26007870e-24
184              3.63655986e-07 -3.43427451e-09 -3.67872802e-23 2.71850346e-07 -7.80565919e-09 -3.24608209e-23 9.18056400e-08 4.37138467e-09 -4.32645929e-24
185              3.63457280e-07 -5.84237273e-08 -3.77521317e-23 2.71825473e-07 -5.50068114e-08 -3.02197651e-23 9.16318075e-08 -3.41691589e-09 -7.53236662e-24
186              3.66624289e-07 -8.64485664e-08 -3.78613365e-23 2.74734905e-07 -7.68051901e-08 -2.85984126e-23 9.18893837e-08 -9.64337632e-09 -9.26292390e-24
187              3.68017099e-07 -7.46064112e-08 -3.68179544e-23 2.75855049e-07 -6.31896805e-08 -2.87166021e-23 9.21620500e-08 -1.14167308e-08 -8.10135227e-24
188              3.65343740e-07 -2.88454329e-08 -3.51210089e-23 2.73333178e-07 -2.08749364e-08 -3.06352974e-23 9.20105623e-08 -7.97049654e-09 -4.48571147e-24
189              3.62972684e-07 3.02811573e-08 -3.37330762e-23 2.71291389e-07 3.11544766e-08 -3.31114592e-23 9.16812955e-08 -8.73319295e-10 -6.21616951e-25
190              3.64754573e-07 7.57290216e-08 -3.33937979e-23 2.73042832e-07 6.90766222e-08 -3.48128697e-23 9.17117402e-08 6.65239939e-09 1.41907175e-24
191              3.67787748e-07 8.60919177e-08 -3.41551428e-23 2.75737850e-07 7.49852567e-08 -3.51592672e-23 9.20498982e-08 1.11066610e-08 1.00412446e-24
192              3.67177052e-07 5.70246622e-08 -3.54021096e-23 2.75032457e-07 4.65702558e-08 -3.43800782e-23 9.21445955e-08 1.04544063e-08 -1.02203136e-24
193              3.63900473e-07 2.07262270e-09 -3.66765538e-23 2.72060381e-07 -2.96019345e-09 -3.26603126e-23 9.18400924e-08 5.03281614e-09 -4.01624123e-24
194              3.63290270e-07 -5.41930025e-08 -3.76907473e-23 2.71659989e-07 -5.14761020e-08 -3.04199828e-23 9.16302811e-08 -2.71690053e-09 -7.27076450e-24
195              3.66334894e-07 -8.55126174e-08 -3.78997603e-23 2.74477494e-07 -7.62817384e-08 -2.86893747e-23 9.18573995e-08 -9.23087902e-09 -9.21038565e-24
196              3.68083952e-07 -7.73174164e-08 -3.69536243e-23 2.75929098e-07 -6.58374775e-08 -2.86215737e-23 9.21548536e-08 -1.14799389e-08 -8.33205059e-24
197              3.65672880e-07 -3.39591927e-08 -3.52772049e-23 2.73630960e-07 -2.54833131e-08 -3.04148780e-23 9.20419195e-08 -8.47587959e-09 -4.86232686e-24
198              3.63030989e-07 2.50333338e-08 -3.38236833e-23 2.71327758e-07 2.66277940e-08 -3.29019277e-23 9.17032307e-08 -1.59446020e-09 -9.21755597e-25
199              3.64440844e-07 7.28236116e-08 -3.33734957e-23 2.72750360e-07 6.67764187e-08 -3.47120188e-23 9.16904841e-08 6.04719295e-09 1.33852308e-24
200              3.67623676e-07 8.68661662e-08 -3.40547097e-23 2.75601590e-07 7.59669366e-08 -3.51816580e-23 9.20220864e-08 1.08992297e-08 1.12694832e-24
