# Moment        
# CofR          : (2.00000000e-01 1.50000000e-01 -1.00000000e-02)
#
# Time          	total_x total_y total_z	pressure_x pressure_y pressure_z	viscous_x viscous_y viscous_z
100              -5.28675953e-24 -4.98535153e-25 -5.22298649e-08 -5.18343660e-24 5.05405963e-25 -3.90130663e-08 -1.03322935e-25 -1.00394112e-24 -1.32167986e-08
101              -5.36906541e-24 -4.73945629e-25 -5.23070744e-08 -5.08880461e-24 5.17626329e-25 -3.90748084e-08 -2.80260803e-25 -9.91571958e-25 -1.32322660e-08
102              -5.46550865e-24 -4.43653645e-25 -5.22638630e-08 -4.81930709e-24 5.28195773e-25 -3.90298642e-08 -6.46201566e-25 -9.71849418e-25 -1.32339988e-08
103              -5.53271406e-24 -4.17897881e-25 -5.23977541e-08 -4.51238619e-24 5.35878645e-25 -3.91442182e-08 -1.02032787e-24 -9.53776526e-25 -1.32535359e-08
104              -5.50295672e-24 -4.02984479e-25 -5.27516397e-08 -4.39617320e-24 5.46072802e-25 -3.94409782e-08 -1.10678352e-24 -9.49057281e-25 -1.33106615e-08
105              -5.38186948e-24 -4.08353299e-25 -5.30079606e-08 -4.54483350e-24 5.54180199e-25 -3.96288602e-08 -8.37035980e-25 -9.62533498e-25 -1.33791004e-08
106              -5.24639903e-24 -4.37670087e-25 -5.29743980e-08 -4.86176580e-24 5.51238207e-25 -3.95558173e-08 -3.84633226e-25 -9.88908294e-25 -1.34185808e-08
107              -5.17153232e-24 -4.79870889e-25 -5.29134755e-08 -5.19432232e-24 5.36940719e-25 -3.94818079e-08 2.27899995e-26 -1.01681161e-24 -1.34316676e-08
108              -5.18827759e-24 -5.12703059e-25 -5.31451558e-08 -5.42335448e-24 5.21443042e-25 -3.96932884e-08 2.35076895e-25 -1.03414610e-24 -1.34518674e-08
109              -5.26538485e-24 -5.15541157e-25 -5.35031498e-08 -5.51936004e-24 5.19387144e-25 -4.00193485e-08 2.53975192e-25 -1.03492830e-24 -1.34838013e-08
110              -5.36885884e-24 -4.88765271e-25 -5.35670585e-08 -5.43483631e-24 5.31259896e-25 -4.00747673e-08 6.59774757e-26 -1.02002517e-24 -1.34922912e-08
111              -5.47788918e-24 -4.47689939e-25 -5.33465001e-08 -5.15338026e-24 5.47426296e-25 -3.98787398e-08 -3.24508915e-25 -9.95116235e-25 -1.34677603e-08
112              -5.56468413e-24 -4.09264240e-25 -5.33281737e-08 -4.77709331e-24 5.60304116e-25 -3.98711644e-08 -7.87590825e-25 -9.69568356e-25 -1.34570093e-08
113              -5.57031210e-24 -3.87840463e-25 -5.37022037e-08 -4.51876343e-24 5.68887659e-25 -4.01987963e-08 -1.05154866e-24 -9.56728122e-25 -1.35034074e-08
114              -5.45513537e-24 -3.91679939e-25 -5.40322383e-08 -4.57263744e-24 5.74773639e-25 -4.04547142e-08 -8.82497935e-25 -9.66453577e-25 -1.35775241e-08
115              -5.28157108e-24 -4.22791259e-25 -5.39304081e-08 -4.90843544e-24 5.72427132e-25 -4.03146272e-08 -3.73135637e-25 -9.95218391e-25 -1.36157809e-08
116              -5.15330825e-24 -4.70739110e-25 -5.37034657e-08 -5.33379501e-24 5.58745698e-25 -4.00904065e-08 1.80486756e-25 -1.02948481e-24 -1.36130592e-08
117              -5.13976419e-24 -5.12666288e-25 -5.38603621e-08 -5.64381405e-24 5.40119330e-25 -4.02413436e-08 5.04049860e-25 -1.05278562e-24 -1.36190185e-08
118              -5.23176172e-24 -5.24796440e-25 -5.42796152e-08 -5.74742255e-24 5.30400825e-25 -4.06306352e-08 5.15660829e-25 -1.05519727e-24 -1.36489800e-08
119              -5.36153033e-24 -5.00625648e-25 -5.43630505e-08 -5.64740025e-24 5.37841726e-25 -4.07077936e-08 2.85869924e-25 -1.03846737e-24 -1.36552569e-08
120              -5.48603897e-24 -4.54787253e-25 -5.40224911e-08 -5.35121426e-24 5.55371576e-25 -4.04090611e-08 -1.34824713e-25 -1.01015883e-24 -1.36134300e-08
121              -5.58401278e-24 -4.07712261e-25 -5.38624254e-08 -4.94340731e-24 5.72270604e-25 -4.02844245e-08 -6.40605462e-25 -9.79982865e-25 -1.35780010e-08
122              -5.60718863e-24 -3.79183179e-25 -5.42239771e-08 -4.61531814e-24 5.82652342e-25 -4.06123109e-08 -9.91870491e-25 -9.61835521e-25 -1.36116661e-08
123              -5.50494365e-24 -3.80863222e-25 -5.46114735e-08 -4.58678582e-24 5.86893579e-25 -4.09234598e-08 -9.18157833e-25 -9.67756801e-25 -1.36880138e-08
124              -5.31732529e-24 -4.12639287e-25 -5.44948334e-08 -4.90100343e-24 5.83824449e-25 -4.07669841e-08 -4.16321858e-25 -9.96463736e-25 -1.37278492e-08
125              -5.15666667e-24 -4.63693791e-25 -5.41499316e-08 -5.36905780e-24 5.70316298e-25 -4.04344249e-08 2.12391126e-25 -1.03401009e-24 -1.37155067e-08
126              -5.11328050e-24 -5.10830103e-25 -5.42302861e-08 -5.74399572e-24 5.51022598e-25 -4.05203513e-08 6.30715217e-25 -1.06185270e-24 -1.37099347e-08
127              -5.20226317e-24 -5.29137671e-25 -5.46760550e-08 -5.87660083e-24 5.37551786e-25 -4.09389089e-08 6.74337669e-25 -1.06668946e-24 -1.37371461e-08
128              -5.34868772e-24 -5.08719235e-25 -5.48049481e-08 -5.77161388e-24 5.40885137e-25 -4.10602157e-08 4.22926163e-25 -1.04960437e-24 -1.37447324e-08
129              -5.48544213e-24 -4.61732168e-25 -5.44098501e-08 -5.46928649e-24 5.57936190e-25 -4.07145031e-08 -1.61556362e-26 -1.01966836e-24 -1.36953470e-08
130              -5.59213251e-24 -4.09945167e-25 -5.41433064e-08 -5.04667925e-24 5.76905077e-25 -4.05001375e-08 -5.45453260e-25 -9.86850244e-25 -1.36431690e-08
131              -5.62647289e-24 -3.75766401e-25 -5.44639472e-08 -4.68183489e-24 5.89395062e-25 -4.07992329e-08 -9.44637998e-25 -9.65161463e-25 -1.36647143e-08
132              -5.53631518e-24 -3.74186177e-25 -5.49002960e-08 -4.59598253e-24 5.93589646e-25 -4.11591263e-08 -9.40332649e-25 -9.67775823e-25 -1.37411697e-08
133              -5.34614073e-24 -4.05196633e-25 -5.48047253e-08 -4.87711534e-24 5.90096799e-25 -4.10199459e-08 -4.69025392e-25 -9.95293432e-25 -1.37847794e-08
134              -5.16667372e-24 -4.57392739e-25 -5.43941353e-08 -5.35948385e-24 5.76864298e-25 -4.06251824e-08 1.92810126e-25 -1.03425704e-24 -1.37689529e-08
135              -5.10094602e-24 -5.07884130e-25 -5.43967840e-08 -5.77478218e-24 5.57275138e-25 -4.06417529e-08 6.73836161e-25 -1.06515927e-24 -1.37550310e-08
136              -5.17957381e-24 -5.30760988e-25 -5.48490617e-08 -5.94110346e-24 5.41922675e-25 -4.10697571e-08 7.61529659e-25 -1.07268366e-24 -1.37793046e-08
137              -5.33242014e-24 -5.14076410e-25 -5.50303754e-08 -5.84646579e-24 5.42348582e-25 -4.12402686e-08 5.14045656e-25 -1.05642499e-24 -1.37901069e-08
138              -5.47748941e-24 -4.67770458e-25 -5.46284845e-08 -5.54738535e-24 5.58317348e-25 -4.08889017e-08 6.98959362e-26 -1.02608781e-24 -1.37395828e-08
139              -5.59129209e-24 -4.13680181e-25 -5.42825665e-08 -5.11902548e-24 5.78152625e-25 -4.06054753e-08 -4.72266610e-25 -9.91832807e-25 -1.36770911e-08
140              -5.63596839e-24 -3.75354000e-25 -5.45556105e-08 -4.73018837e-24 5.92191052e-25 -4.08678005e-08 -9.05780023e-25 -9.67545052e-25 -1.36878100e-08
141              -5.55750564e-24 -3.70221680e-25 -5.50235324e-08 -4.60130842e-24 5.97003617e-25 -4.12607483e-08 -9.56197223e-25 -9.67225296e-25 -1.37627841e-08
142              -5.36957708e-24 -3.99293217e-25 -5.49724612e-08 -4.84865541e-24 5.93749764e-25 -4.11610311e-08 -5.20921672e-25 -9.93042981e-25 -1.38114301e-08
143              -5.17918915e-24 -4.51414691e-25 -5.45307891e-08 -5.32992478e-24 5.80942159e-25 -4.07346000e-08 1.50735629e-25 -1.03235685e-24 -1.37961891e-08
144              -5.09571372e-24 -5.04178104e-25 -5.44634639e-08 -5.77187749e-24 5.61317490e-25 -4.06869831e-08 6.76163763e-25 -1.06549559e-24 -1.37764808e-08
145              -5.16226619e-24 -5.31009134e-25 -5.49059509e-08 -5.96905944e-24 5.44650533e-25 -4.11083507e-08 8.06793252e-25 -1.07565967e-24 -1.37976002e-08
146              -5.31570068e-24 -5.17999932e-25 -5.51400812e-08 -5.89263236e-24 5.42882883e-25 -4.13278579e-08 5.76931671e-25 -1.06088282e-24 -1.38122233e-08
147              -5.46619657e-24 -4.73189734e-25 -5.47603680e-08 -5.60414922e-24 5.57665220e-25 -4.09961129e-08 1.37952656e-25 -1.03085495e-24 -1.37642552e-08
148              -5.58571042e-24 -4.18081482e-25 -5.43564153e-08 -5.17605770e-24 5.77795180e-25 -4.06608728e-08 -4.09652714e-25 -9.95876662e-25 -1.36955426e-08
149              -5.63997659e-24 -3.76637989e-25 -5.45711655e-08 -4.76929587e-24 5.92908269e-25 -4.08748369e-08 -8.70680715e-25 -9.69546257e-25 -1.36963285e-08
150              -5.57349427e-24 -3.67896962e-25 -5.50642201e-08 -4.60473802e-24 5.98608397e-25 -4.12953840e-08 -9.68756246e-25 -9.66505359e-25 -1.37688361e-08
151              -5.39078715e-24 -3.94465586e-25 -5.50665669e-08 -4.81760448e-24 5.95863774e-25 -4.12437770e-08 -5.73182664e-25 -9.90329361e-25 -1.38227898e-08
152              -5.19326526e-24 -4.45710804e-25 -5.46169622e-08 -5.29104045e-24 5.83735081e-25 -4.08064303e-08 9.77751946e-26 -1.02944589e-24 -1.38105319e-08
153              -5.09491628e-24 -5.00086984e-25 -5.44860824e-08 -5.75152988e-24 5.64213358e-25 -4.06993453e-08 6.56613601e-25 -1.06430034e-24 -1.37867371e-08
154              -5.14816893e-24 -5.30433768e-25 -5.49082659e-08 -5.97813450e-24 5.46637074e-25 -4.11037873e-08 8.29965573e-25 -1.07707084e-24 -1.38044786e-08
155              -5.29959951e-24 -5.21177163e-25 -5.51910952e-08 -5.92259177e-24 5.42904718e-25 -4.13683452e-08 6.22992262e-25 -1.06408188e-24 -1.38227500e-08
156              -5.45370822e-24 -4.78280580e-25 -5.48486543e-08 -5.64859954e-24 5.56467062e-25 -4.10693541e-08 1.94891324e-25 -1.03474764e-24 -1.37793002e-08
157              -5.57768045e-24 -4.22786452e-25 -5.44031393e-08 -5.22570583e-24 5.76707084e-25 -4.06961230e-08 -3.51974619e-25 -9.99493536e-25 -1.37070163e-08
158              -5.64085504e-24 -3.78808006e-25 -5.45559079e-08 -4.80532304e-24 5.92657996e-25 -4.08574967e-08 -8.35532006e-25 -9.71466002e-25 -1.36984113e-08
159              -5.58670615e-24 -3.66564033e-25 -5.50616622e-08 -4.60821529e-24 5.99239731e-25 -4.12941878e-08 -9.78490860e-25 -9.65803764e-25 -1.37674744e-08
160              -5.41085188e-24 -3.90293443e-25 -5.51246166e-08 -4.78666683e-24 5.97193171e-25 -4.12980125e-08 -6.24185049e-25 -9.87486614e-25 -1.38266041e-08
161              -5.20841461e-24 -4.40236191e-25 -5.46812329e-08 -5.24794260e-24 5.85845175e-25 -4.08624837e-08 3.95279913e-26 -1.02608137e-24 -1.38187493e-08
162              -5.09630109e-24 -4.95722845e-25 -5.44904168e-08 -5.72273656e-24 5.66628821e-25 -4.06983613e-08 6.26435468e-25 -1.06235167e-24 -1.37920555e-08
163              -5.13652682e-24 -5.29326537e-25 -5.48808234e-08 -5.97626920e-24 5.48237604e-25 -4.10748343e-08 8.39742375e-25 -1.07756414e-24 -1.38059891e-08
164              -5.28379165e-24 -5.23838232e-25 -5.52095540e-08 -5.94389970e-24 5.42771102e-25 -4.13820857e-08 6.60108046e-25 -1.06660933e-24 -1.38274684e-08
165              -5.44062357e-24 -4.83174846e-25 -5.49145697e-08 -5.68641087e-24 5.55022822e-25 -4.11250003e-08 2.45787291e-25 -1.03819767e-24 -1.37895694e-08
166              -5.56848687e-24 -4.27727035e-25 -5.44381693e-08 -5.27089134e-24 5.75177848e-25 -4.07228595e-08 -2.97595533e-25 -1.00290488e-24 -1.37153097e-08
167              -5.63995797e-24 -3.81539941e-25 -5.45279747e-08 -4.84016406e-24 5.91880266e-25 -4.08300459e-08 -7.99793910e-25 -9.73420207e-25 -1.36979288e-08
168              -5.59792400e-24 -3.65859492e-25 -5.50373790e-08 -4.61332970e-24 5.99382666e-25 -4.12746993e-08 -9.84594302e-25 -9.65242158e-25 -1.37626797e-08
169              -5.43047838e-24 -3.86617220e-25 -5.51590482e-08 -4.75597694e-24 5.98016690e-25 -4.13325311e-08 -6.74501435e-25 -9.84633909e-25 -1.38265170e-08
170              -5.22454796e-24 -4.34921342e-25 -5.47350274e-08 -5.20281617e-24 5.87573873e-25 -4.09109862e-08 -2.17317980e-26 -1.02249522e-24 -1.38240411e-08
171              -5.10025275e-24 -4.91186672e-25 -5.44885925e-08 -5.68800648e-24 5.68696782e-25 -4.06933932e-08 5.87753735e-25 -1.05988345e-24 -1.37951993e-08
172              -5.12626581e-24 -5.27810305e-25 -5.48420641e-08 -5.96851290e-24 5.49756157e-25 -4.10368486e-08 8.42247090e-25 -1.07756646e-24 -1.38052155e-08
173              -5.26847883e-24 -5.26078244e-25 -5.52123878e-08 -5.95987916e-24 5.42632214e-25 -4.13831610e-08 6.91400339e-25 -1.06871046e-24 -1.38292267e-08
174              -5.42733659e-24 -4.87882155e-25 -5.49716519e-08 -5.72013695e-24 5.53514011e-25 -4.11741610e-08 2.92800366e-25 -1.04139617e-24 -1.37974909e-08
175              -5.55874167e-24 -4.32755728e-25 -5.44709622e-08 -5.31375762e-24 5.73455881e-25 -4.07484699e-08 -2.44984053e-25 -1.00621161e-24 -1.37224923e-08
176              -5.63750771e-24 -3.84659337e-25 -5.44975199e-08 -4.87573942e-24 5.90857401e-25 -4.08007130e-08 -7.61768292e-25 -9.75516738e-25 -1.36968068e-08
177              -5.60769517e-24 -3.65605628e-25 -5.50028108e-08 -4.62109079e-24 5.99280568e-25 -4.12463863e-08 -9.86604381e-25 -9.64886197e-25 -1.37564245e-08
178              -5.44928364e-24 -3.83258556e-25 -5.51856544e-08 -4.72833830e-24 5.98679105e-25 -4.13612019e-08 -7.20945339e-25 -9.81937661e-25 -1.38244525e-08
179              -5.24160424e-24 -4.29726028e-25 -5.47821064e-08 -5.15656713e-24 5.89055814e-25 -4.09544252e-08 -8.50371118e-26 -1.01878184e-24 -1.38276812e-08
180              -5.10549800e-24 -4.86429610e-25 -5.44892183e-08 -5.65070016e-24 5.70719012e-25 -4.06915578e-08 5.45202157e-25 -1.05714862e-24 -1.37976605e-08
181              -5.11768216e-24 -5.25959086e-25 -5.47980101e-08 -5.95588901e-24 5.51208848e-25 -4.09945055e-08 8.38206852e-25 -1.07716793e-24 -1.38035046e-08
182              -5.25321408e-24 -5.27968768e-25 -5.52047295e-08 -5.97290743e-24 5.42600237e-25 -4.13753006e-08 7.19693345e-25 -1.07056900e-24 -1.38294289e-08
183              -5.41370322e-24 -4.92411604e-25 -5.50196632e-08 -5.75128298e-24 5.52022147e-25 -4.12156723e-08 3.37579767e-25 -1.04443375e-24 -1.38039909e-08
184              -5.54833657e-24 -4.37851213e-25 -5.45069312e-08 -5.35577150e-24 5.71663162e-25 -4.07775519e-08 -1.92565074e-25 -1.00951438e-24 -1.37293793e-08
185              -5.63408781e-24 -3.88040618e-25 -5.44696008e-08 -4.91223092e-24 5.89686551e-25 -4.07738209e-08 -7.21856883e-25 -9.77727169e-25 -1.36957799e-08
186              -5.61634335e-24 -3.65747152e-25 -5.49597443e-08 -4.63103646e-24 5.98965779e-25 -4.12102358e-08 -9.85306889e-25 -9.64712930e-25 -1.37495085e-08
187              -5.46784515e-24 -3.80232086e-25 -5.51993986e-08 -4.70236092e-24 5.99106735e-25 -4.13782573e-08 -7.65484225e-25 -9.79338821e-25 -1.38211413e-08
188              -5.25914015e-24 -4.24674075e-25 -5.48304283e-08 -5.11086861e-24 5.90414195e-25 -4.09999767e-08 -1.48271535e-25 -1.01508827e-24 -1.38304516e-08
189              -5.11234010e-24 -4.81564174e-25 -5.44936865e-08 -5.61073714e-24 5.72629060e-25 -4.06937083e-08 4.98397036e-25 -1.05419323e-24 -1.37999782e-08
190              -5.10996794e-24 -5.23718531e-25 -5.47580451e-08 -5.94123171e-24 5.52822788e-25 -4.09564249e-08 8.31263772e-25 -1.07654132e-24 -1.38016203e-08
191              -5.23836918e-24 -5.29534279e-25 -5.51893554e-08 -5.98282192e-24 5.42661125e-25 -4.13606775e-08 7.44452741e-25 -1.07219540e-24 -1.38286779e-08
192              -5.40009682e-24 -4.96812722e-25 -5.50644737e-08 -5.77984437e-24 5.50538752e-25 -4.12548685e-08 3.79747557e-25 -1.04735147e-24 -1.38096052e-08
193              -5.53736656e-24 -4.42978480e-25 -5.45453569e-08 -5.39732064e-24 5.69850627e-25 -4.08090571e-08 -1.40045921e-25 -1.01282911e-24 -1.37362998e-08
194              -5.62962978e-24 -3.91719016e-25 -5.44442682e-08 -4.94984741e-24 5.88382500e-25 -4.07489984e-08 -6.79782372e-25 -9.80101516e-25 -1.36952698e-08
195              -5.62355535e-24 -3.66208335e-25 -5.49141236e-08 -4.64434559e-24 5.98588159e-25 -4.11716241e-08 -9.79209758e-25 -9.64796494e-25 -1.37424995e-08
196              -5.48566433e-24 -3.77478952e-25 -5.52063285e-08 -4.67972749e-24 5.99461039e-25 -4.13893647e-08 -8.05936833e-25 -9.76939991e-25 -1.38169638e-08
197              -5.27732221e-24 -4.19754227e-25 -5.48772337e-08 -5.06548620e-24 5.91640916e-25 -4.10446440e-08 -2.11836008e-25 -1.01139514e-24 -1.38325897e-08
198              -5.12043856e-24 -4.76539767e-25 -5.45015477e-08 -5.56898554e-24 5.74512799e-25 -4.06991637e-08 4.48546978e-25 -1.05105257e-24 -1.38023841e-08
199              -5.10372041e-24 -5.21194078e-25 -5.47122164e-08 -5.92261990e-24 5.54396715e-25 -4.09125539e-08 8.18899487e-25 -1.07559079e-24 -1.37996625e-08
200              -5.22370335e-24 -5.30723873e-25 -5.51675258e-08 -5.99071234e-24 5.42903395e-25 -4.13402385e-08 7.67008986e-25 -1.07362727e-24 -1.38272873e-08
