scalar
part
         1
quad4
 3.36877e-07
 3.26138e-07
 3.11630e-07
 2.95071e-07
 2.77652e-07
 2.60173e-07
 2.43147e-07
 2.26883e-07
 2.11552e-07
 1.97234e-07
 1.83943e-07
 1.71659e-07
 1.60337e-07
 1.49918e-07
 1.40340e-07
 1.31536e-07
 1.23444e-07
 1.16001e-07
 1.09150e-07
 1.02839e-07
 4.18100e-07
 3.95507e-07
 3.70423e-07
 3.44703e-07
 3.19494e-07
 2.95465e-07
 2.72966e-07
 2.52145e-07
 2.33024e-07
 2.15551e-07
 1.99629e-07
 1.85147e-07
 1.71981e-07
 1.60012e-07
 1.49125e-07
 1.39212e-07
 1.30175e-07
 1.21926e-07
 1.14385e-07
 1.07480e-07
 5.18532e-07
 4.78453e-07
 4.38716e-07
 4.00930e-07
 3.65881e-07
 3.33861e-07
 3.04883e-07
 2.78802e-07
 2.55401e-07
 2.34432e-07
 2.15646e-07
 1.98803e-07
 1.83684e-07
 1.70090e-07
 1.57845e-07
 1.46792e-07
 1.36793e-07
 1.27728e-07
 1.19492e-07
 1.11993e-07
 6.40974e-07
 5.75990e-07
 5.16610e-07
 4.63423e-07
 4.16310e-07
 3.74823e-07
 3.38385e-07
 3.06395e-07
 2.78286e-07
 2.53543e-07
 2.31709e-07
 2.12391e-07
 1.95249e-07
 1.79990e-07
 1.66365e-07
 1.54164e-07
 1.43203e-07
 1.33328e-07
 1.24405e-07
 1.16322e-07
 7.86987e-07
 6.87970e-07
 6.03270e-07
 5.31149e-07
 4.69775e-07
 4.17454e-07
 3.72709e-07
 3.34292e-07
 3.01163e-07
 2.72462e-07
 2.47480e-07
 2.25637e-07
 2.06452e-07
 1.89529e-07
 1.74538e-07
 1.61206e-07
 1.49304e-07
 1.38642e-07
 1.29055e-07
 1.20409e-07
 9.55535e-07
 8.12310e-07
 6.96514e-07
 6.02170e-07
 5.24665e-07
 4.60460e-07
 4.06835e-07
 3.61692e-07
 3.23403e-07
 2.90696e-07
 2.62571e-07
 2.38234e-07
 2.17051e-07
 1.98513e-07
 1.82205e-07
 1.67792e-07
 1.54995e-07
 1.43585e-07
 1.33373e-07
 1.24198e-07
 1.14130e-06
 9.44199e-07
 7.92465e-07
 6.73503e-07
 5.78732e-07
 5.02159e-07
 4.39501e-07
 3.87646e-07
 3.44289e-07
 3.07700e-07
 2.76560e-07
 2.49855e-07
 2.26790e-07
 2.06741e-07
 1.89209e-07
 1.73794e-07
 1.60171e-07
 1.48076e-07
 1.37290e-07
 1.27633e-07
 1.33307e-06
 1.07553e-06
 8.85413e-07
 7.41148e-07
 6.29163e-07
 5.40552e-07
 4.69274e-07
 4.11113e-07
 3.63055e-07
 3.22902e-07
 2.89019e-07
 2.60173e-07
 2.35417e-07
 2.14016e-07
 1.95393e-07
 1.79089e-07
 1.64736e-07
 1.52035e-07
 1.40743e-07
 1.30660e-07
 1.51298e-06
 1.19500e-06
 9.68104e-07
 8.00369e-07
 6.72801e-07
 5.73495e-07
 4.94666e-07
 4.31040e-07
 3.78944e-07
 3.35749e-07
 2.99537e-07
 2.68879e-07
 2.42697e-07
 2.20158e-07
 2.00618e-07
 1.83567e-07
 1.68600e-07
 1.55391e-07
 1.43674e-07
 1.33234e-07
 1.65771e-06
 1.28928e-06
 1.03263e-06
 8.46282e-07
 7.06526e-07
 5.98932e-07
 5.14285e-07
 4.46465e-07
 3.91274e-07
 3.45749e-07
 3.07751e-07
 2.75704e-07
 2.48425e-07
 2.25010e-07
 2.04761e-07
 1.87132e-07
 1.71688e-07
 1.58083e-07
 1.46035e-07
 1.35314e-07
 1.74341e-06
 1.34585e-06
 1.07193e-06
 8.74697e-07
 7.27739e-07
 6.15187e-07
 5.27017e-07
 4.56623e-07
 3.99508e-07
 3.52516e-07
 3.13381e-07
 2.80438e-07
 2.52443e-07
 2.28450e-07
 2.07729e-07
 1.89710e-07
 1.73942e-07
 1.60065e-07
 1.47786e-07
 1.36871e-07
 1.75419e-06
 1.35665e-06
 1.08158e-06
 8.83025e-07
 7.34840e-07
 6.21232e-07
 5.32174e-07
 4.61042e-07
 4.03313e-07
 3.55811e-07
 3.16249e-07
 2.82948e-07
 2.54650e-07
 2.30400e-07
 2.09460e-07
 1.91253e-07
 1.75323e-07
 1.61305e-07
 1.48904e-07
 1.37881e-07
 1.68967e-06
 1.32112e-06
 1.06112e-06
 8.70905e-07
 7.27559e-07
 6.16860e-07
 5.29600e-07
 4.59602e-07
 4.02597e-07
 3.55561e-07
 3.16299e-07
 2.83188e-07
 2.55010e-07
 2.30831e-07
 2.09930e-07
 1.91740e-07
 1.75813e-07
 1.61789e-07
 1.49376e-07
 1.38337e-07
 1.56524e-06
 1.24642e-06
 1.01416e-06
 8.40276e-07
 7.06989e-07
 6.02717e-07
 5.19687e-07
 4.52546e-07
 3.97514e-07
 3.51865e-07
 3.13594e-07
 2.81201e-07
 2.53549e-07
 2.29760e-07
 2.09151e-07
 1.91180e-07
 1.75419e-07
 1.61521e-07
 1.49204e-07
 1.38238e-07
 1.40476e-06
 1.14466e-06
 9.47222e-07
 7.94853e-07
 6.75340e-07
 5.80160e-07
 5.03299e-07
 4.40440e-07
 3.88442e-07
 3.44981e-07
 3.08314e-07
 2.77115e-07
 2.50360e-07
 2.27255e-07
 2.07171e-07
 1.89608e-07
 1.74166e-07
 1.60520e-07
 1.48403e-07
 1.37597e-07
 1.23155e-06
 1.02901e-06
 8.67982e-07
 7.39247e-07
 6.35470e-07
 5.51020e-07
 4.81635e-07
 4.24088e-07
 3.75933e-07
 3.35296e-07
 3.00735e-07
 2.71126e-07
 2.45588e-07
 2.23422e-07
 2.04071e-07
 1.87086e-07
 1.72102e-07
 1.58823e-07
 1.47001e-07
 1.36434e-07
 1.06287e-06
 9.10633e-07
 7.83577e-07
 6.78061e-07
 5.90395e-07
 5.17305e-07
 4.56059e-07
 4.04434e-07
 3.60649e-07
 3.23282e-07
 2.91198e-07
 2.63486e-07
 2.39418e-07
 2.18401e-07
 1.99958e-07
 1.83695e-07
 1.69290e-07
 1.56478e-07
 1.45037e-07
 1.34782e-07
 9.08811e-07
 7.97343e-07
 6.99638e-07
 6.15250e-07
 5.42875e-07
 4.80950e-07
 4.27938e-07
 3.82453e-07
 3.43296e-07
 3.09455e-07
 2.80084e-07
 2.54481e-07
 2.32066e-07
 2.12357e-07
 1.94957e-07
 1.79532e-07
 1.65807e-07
 1.53548e-07
 1.42560e-07
 1.32679e-07
 7.73717e-07
 6.93665e-07
 6.19998e-07
 5.53809e-07
 4.95173e-07
 4.43638e-07
 3.98520e-07
 3.59072e-07
 3.24564e-07
 2.94332e-07
 2.67784e-07
 2.44407e-07
 2.23760e-07
 2.05467e-07
 1.89207e-07
 1.74708e-07
 1.61737e-07
 1.50099e-07
 1.39623e-07
 1.30168e-07
 6.58203e-07
 6.01571e-07
 5.46871e-07
 4.95750e-07
 4.48964e-07
 4.06708e-07
 3.68853e-07
 3.35102e-07
 3.05081e-07
 2.78399e-07
 2.54676e-07
 2.33559e-07
 2.14732e-07
 1.97912e-07
 1.82852e-07
 1.69335e-07
 1.57174e-07
 1.46205e-07
 1.36288e-07
 1.27298e-07
