scalar
part
         1
quad4
 5.44676e-07
 5.03514e-07
 4.62442e-07
 4.23115e-07
 3.86421e-07
 3.52740e-07
 3.22147e-07
 2.94538e-07
 2.69716e-07
 2.47441e-07
 2.27464e-07
 2.09541e-07
 1.93448e-07
 1.78976e-07
 1.65940e-07
 1.54175e-07
 1.43537e-07
 1.33896e-07
 1.25141e-07
 1.17174e-07
 6.47880e-07
 5.87197e-07
 5.30024e-07
 4.77680e-07
 4.30575e-07
 3.88607e-07
 3.51423e-07
 3.18563e-07
 2.89543e-07
 2.63899e-07
 2.41203e-07
 2.21076e-07
 2.03184e-07
 1.87238e-07
 1.72986e-07
 1.60214e-07
 1.48736e-07
 1.38393e-07
 1.29046e-07
 1.20578e-07
 7.70341e-07
 6.82950e-07
 6.04969e-07
 5.36588e-07
 4.77159e-07
 4.25707e-07
 3.81194e-07
 3.42637e-07
 3.09158e-07
 2.79998e-07
 2.54511e-07
 2.32151e-07
 2.12460e-07
 1.95055e-07
 1.79612e-07
 1.65860e-07
 1.53573e-07
 1.42556e-07
 1.32646e-07
 1.23705e-07
 9.12485e-07
 7.89730e-07
 6.85798e-07
 5.98369e-07
 5.24882e-07
 4.62969e-07
 4.10595e-07
 3.66069e-07
 3.28013e-07
 2.95306e-07
 2.67045e-07
 2.42495e-07
 2.21060e-07
 2.02254e-07
 1.85677e-07
 1.71002e-07
 1.57956e-07
 1.46312e-07
 1.35881e-07
 1.26505e-07
 1.07179e-06
 9.04386e-07
 7.69636e-07
 6.60669e-07
 5.71902e-07
 4.98979e-07
 4.38549e-07
 3.88043e-07
 3.45485e-07
 3.09347e-07
 2.78438e-07
 2.51823e-07
 2.28761e-07
 2.08660e-07
 1.91044e-07
 1.75528e-07
 1.61796e-07
 1.49589e-07
 1.38693e-07
 1.28928e-07
 1.24095e-06
 1.02092e-06
 8.51975e-07
 7.20207e-07
 6.15855e-07
 5.32033e-07
 4.63820e-07
 4.07653e-07
 3.60906e-07
 3.21621e-07
 2.88314e-07
 2.59849e-07
 2.35343e-07
 2.14103e-07
 1.95579e-07
 1.79333e-07
 1.65010e-07
 1.52320e-07
 1.41026e-07
 1.30933e-07
 1.40647e-06
 1.13024e-06
 9.26779e-07
 7.72956e-07
 6.54018e-07
 5.60259e-07
 4.85103e-07
 4.23973e-07
 3.73609e-07
 3.31641e-07
 2.96313e-07
 2.66303e-07
 2.40601e-07
 2.18425e-07
 1.99161e-07
 1.82323e-07
 1.67523e-07
 1.54446e-07
 1.42835e-07
 1.32480e-07
 1.54900e-06
 1.22094e-06
 9.87132e-07
 8.14590e-07
 6.83606e-07
 5.81820e-07
 5.01153e-07
 4.36144e-07
 3.82988e-07
 3.38972e-07
 3.02117e-07
 2.70950e-07
 2.44360e-07
 2.21493e-07
 2.01687e-07
 1.84419e-07
 1.69273e-07
 1.55917e-07
 1.44079e-07
 1.33538e-07
 1.64710e-06
 1.28147e-06
 1.02646e-06
 8.41185e-07
 7.02183e-07
 5.95149e-07
 5.10935e-07
 4.43463e-07
 3.88556e-07
 3.43271e-07
 3.05478e-07
 2.73609e-07
 2.46485e-07
 2.23207e-07
 2.03080e-07
 1.85560e-07
 1.70215e-07
 1.56698e-07
 1.44731e-07
 1.34084e-07
 1.68371e-06
 1.30317e-06
 1.04001e-06
 8.49988e-07
 7.08079e-07
 5.99194e-07
 5.13764e-07
 4.45471e-07
 3.90000e-07
 3.44318e-07
 3.06242e-07
 2.74167e-07
 2.46892e-07
 2.23503e-07
 2.03294e-07
 1.85712e-07
 1.70319e-07
 1.56767e-07
 1.44773e-07
 1.34106e-07
 1.65241e-06
 1.28282e-06
 1.02605e-06
 8.40005e-07
 7.00698e-07
 5.93586e-07
 5.09404e-07
 4.42016e-07
 3.87216e-07
 3.42041e-07
 3.04357e-07
 2.72589e-07
 2.45558e-07
 2.22365e-07
 2.02315e-07
 1.84864e-07
 1.69580e-07
 1.56119e-07
 1.44201e-07
 1.33599e-07
 1.55936e-06
 1.22348e-06
 9.86242e-07
 8.12201e-07
 6.80631e-07
 5.78700e-07
 4.98105e-07
 4.33266e-07
 3.80321e-07
 3.36527e-07
 2.99886e-07
 2.68921e-07
 2.42517e-07
 2.19819e-07
 2.00165e-07
 1.83033e-07
 1.68011e-07
 1.54764e-07
 1.43024e-07
 1.32571e-07
 1.42027e-06
 1.13336e-06
 9.25152e-07
 7.69260e-07
 6.49526e-07
 5.55591e-07
 4.80559e-07
 4.19691e-07
 3.69645e-07
 3.28006e-07
 2.92998e-07
 2.63288e-07
 2.37861e-07
 2.15935e-07
 1.96897e-07
 1.80262e-07
 1.65643e-07
 1.52729e-07
 1.41264e-07
 1.31039e-07
 1.25505e-06
 1.02336e-06
 8.49095e-07
 7.15003e-07
 6.09786e-07
 5.25817e-07
 4.57809e-07
 4.02006e-07
 3.55686e-07
 3.16837e-07
 2.83952e-07
 2.55881e-07
 2.31736e-07
 2.10823e-07
 1.92595e-07
 1.76615e-07
 1.62530e-07
 1.50054e-07
 1.38951e-07
 1.29030e-07
 1.08252e-06
 9.04558e-07
 7.64826e-07
 6.53685e-07
 5.64168e-07
 4.91214e-07
 4.31106e-07
 3.81080e-07
 3.39061e-07
 3.03465e-07
 2.73076e-07
 2.46943e-07
 2.24323e-07
 2.04623e-07
 1.87369e-07
 1.72178e-07
 1.58737e-07
 1.46792e-07
 1.36131e-07
 1.26577e-07
 9.17108e-07
 7.86282e-07
 6.78436e-07
 5.89349e-07
 5.15406e-07
 4.53662e-07
 4.01765e-07
 3.57852e-07
 3.20449e-07
 2.88388e-07
 2.60738e-07
 2.36754e-07
 2.15837e-07
 1.97499e-07
 1.81345e-07
 1.67050e-07
 1.54345e-07
 1.43007e-07
 1.32852e-07
 1.23723e-07
 7.67654e-07
 6.75129e-07
 5.94671e-07
 5.25376e-07
 4.65912e-07
 4.14893e-07
 3.71042e-07
 3.33238e-07
 3.00529e-07
 2.72113e-07
 2.47324e-07
 2.25607e-07
 2.06502e-07
 1.89627e-07
 1.74662e-07
 1.61341e-07
 1.49440e-07
 1.38770e-07
 1.29173e-07
 1.20513e-07
 6.38052e-07
 5.74921e-07
 5.16725e-07
 4.64276e-07
 4.17604e-07
 3.76362e-07
 3.40037e-07
 3.08074e-07
 2.79936e-07
 2.55128e-07
 2.33209e-07
 2.13794e-07
 1.96549e-07
 1.81187e-07
 1.67463e-07
 1.55166e-07
 1.44115e-07
 1.34155e-07
 1.25155e-07
 1.16998e-07
 5.28726e-07
 4.87215e-07
 4.46364e-07
 4.07669e-07
 3.71858e-07
 3.39186e-07
 3.09642e-07
 2.83066e-07
 2.59228e-07
 2.37872e-07
 2.18740e-07
 2.01589e-07
 1.86195e-07
 1.72355e-07
 1.59890e-07
 1.48639e-07
 1.38463e-07
 1.29239e-07
 1.20859e-07
 1.13231e-07
 4.38117e-07
 4.12009e-07
 3.84241e-07
 3.56420e-07
 3.29535e-07
 3.04146e-07
 2.80527e-07
 2.58773e-07
 2.38864e-07
 2.20720e-07
 2.04223e-07
 1.89243e-07
 1.75644e-07
 1.63297e-07
 1.52077e-07
 1.41871e-07
 1.32575e-07
 1.24096e-07
 1.16350e-07
 1.09262e-07
