# vtk DataFile Version 2.0
gauge_2
ASCII
DATASET POLYDATA
POINTS 70 double
0.2 0.0314993 0.005
0.2 0.0329993 0.005
0.2 0.0344993 0.005
0.2 0.0359992 0.005
0.2 0.0374992 0.005
0.2 0.0389992 0.005
0.2 0.0404991 0.005
0.2 0.0419991 0.005
0.2 0.0434991 0.005
0.2 0.044999 0.005
0.2 0.046499 0.005
0.2 0.047999 0.005
0.2 0.0511894 0.005
0.2 0.0543799 0.005
0.2 0.0575704 0.005
0.2 0.0607609 0.005
0.2 0.0639514 0.005
0.2 0.0671419 0.005
0.2 0.0703323 0.005
0.2 0.0735228 0.005
0.2 0.0767133 0.005
0.2 0.0799038 0.005
0.2 0.0830943 0.005
0.2 0.0862847 0.005
0.2 0.0894752 0.005
0.2 0.0926657 0.005
0.2 0.0958562 0.005
0.2 0.0990467 0.005
0.2 0.102237 0.005
0.2 0.105428 0.005
0.2 0.108618 0.005
0.2 0.111809 0.005
0.2 0.114999 0.005
0.2 0.11819 0.005
0.2 0.124571 0.005
0.2 0.130952 0.005
0.2 0.137332 0.005
0.2 0.150094 0.005
0.2 0.162856 0.005
0.2 0.175618 0.005
0.2 0.18838 0.005
0.2 0.201142 0.005
0.2 0.213904 0.005
0.2 0.226666 0.005
0.2 0.239428 0.005
0.2 0.25219 0.005
0.2 0.264952 0.005
0.2 0.277714 0.005
0.2 0.290476 0.005
0.2 0.303238 0.005
0.2 0.315999 0.005
0.2 0.328761 0.005
0.2 0.341523 0.005
0.2 0.354285 0.005
0.2 0.367047 0.005
0.2 0.379809 0.005
0.2 0.392571 0.005
0.2 0.405333 0.005
0.2 0.418095 0.005
0.2 0.430857 0.005
0.2 0.443619 0.005
0.2 0.456381 0.005
0.2 0.469143 0.005
0.2 0.481905 0.005
0.2 0.494666 0.005
0.2 0.507428 0.005
0.2 0.52019 0.005
0.2 0.532952 0.005
0.2 0.545714 0.005
0.2 0.558476 0.005
POINT_DATA 70
 FIELD attributes 1
alpha.water 1 70 float
1 1 1 1 1 1 1 1 1 1 1 1 1 1 1 1 1 1 1 1 1 1 0.999999 0.999991 0.999996 0.999865 0.999767 0.999697 1.01176 0.767702 0.277255 7.00755e-05 2.64776e-07 5.14036e-07 1.95731e-05 7.89579e-05 0.000114753 7.62577e-05 2.6162e-05 1.48777e-07 1.1424e-07 2.88853e-10 7.83167e-10 8.61427e-10 3.90998e-10 3.83264e-11 1.75591e-12 7.53874e-14 2.32546e-14 3.54777e-15 5.25453e-16 5.39179e-15 1.6272e-14 2.08701e-14 1.13981e-14 9.39055e-15 2.73642e-13 3.28848e-12 3.10888e-12 8.64532e-14 6.03041e-18 6.71999e-18 7.68389e-18 1.50817e-18 2.03083e-19 3.3418e-20 2.58649e-23 8.28305e-26 3.80679e-29 4.39197e-33
