scalar
part
         1
quad4
 3.41607e-07
 3.29999e-07
 3.14777e-07
 2.97635e-07
 2.79745e-07
 2.61886e-07
 2.44551e-07
 2.28039e-07
 2.12506e-07
 1.98023e-07
 1.84599e-07
 1.72204e-07
 1.60791e-07
 1.50298e-07
 1.40657e-07
 1.31801e-07
 1.23665e-07
 1.16185e-07
 1.09303e-07
 1.02966e-07
 4.23064e-07
 3.99447e-07
 3.73551e-07
 3.47191e-07
 3.21480e-07
 2.97056e-07
 2.74246e-07
 2.53179e-07
 2.33862e-07
 2.16231e-07
 2.00183e-07
 1.85599e-07
 1.72350e-07
 1.60313e-07
 1.49370e-07
 1.39412e-07
 1.30337e-07
 1.22057e-07
 1.14490e-07
 1.07562e-07
 5.23614e-07
 4.82353e-07
 4.41718e-07
 4.03252e-07
 3.67686e-07
 3.35272e-07
 3.05990e-07
 2.79675e-07
 2.56092e-07
 2.34979e-07
 2.16079e-07
 1.99146e-07
 1.83955e-07
 1.70304e-07
 1.58012e-07
 1.46920e-07
 1.36891e-07
 1.27801e-07
 1.19544e-07
 1.12027e-07
 6.45970e-07
 5.79671e-07
 5.19340e-07
 4.65463e-07
 4.17845e-07
 3.75984e-07
 3.39267e-07
 3.07067e-07
 2.78798e-07
 2.53932e-07
 2.32004e-07
 2.12612e-07
 1.95411e-07
 1.80106e-07
 1.66445e-07
 1.54215e-07
 1.43231e-07
 1.33338e-07
 1.24401e-07
 1.16305e-07
 7.91580e-07
 6.91184e-07
 6.05543e-07
 5.32771e-07
 4.70940e-07
 4.18292e-07
 3.73312e-07
 3.34723e-07
 3.01466e-07
 2.72670e-07
 2.47617e-07
 2.25720e-07
 2.06494e-07
 1.89539e-07
 1.74524e-07
 1.61174e-07
 1.49259e-07
 1.38586e-07
 1.28992e-07
 1.20340e-07
 9.59272e-07
 8.14743e-07
 6.98115e-07
 6.03225e-07
 5.25356e-07
 4.60903e-07
 4.07106e-07
 3.61843e-07
 3.23470e-07
 2.90703e-07
 2.62535e-07
 2.38167e-07
 2.16963e-07
 1.98410e-07
 1.82093e-07
 1.67673e-07
 1.54872e-07
 1.43461e-07
 1.33248e-07
 1.24074e-07
 1.14361e-06
 9.45497e-07
 7.93167e-07
 6.73845e-07
 5.78852e-07
 5.02140e-07
 4.39395e-07
 3.87486e-07
 3.44096e-07
 3.07488e-07
 2.76339e-07
 2.49630e-07
 2.26566e-07
 2.06520e-07
 1.88993e-07
 1.73584e-07
 1.59969e-07
 1.47881e-07
 1.37103e-07
 1.27452e-07
 1.33336e-06
 1.07536e-06
 8.85021e-07
 7.40658e-07
 6.28637e-07
 5.40024e-07
 4.68759e-07
 4.10620e-07
 3.62587e-07
 3.22461e-07
 2.88605e-07
 2.59784e-07
 2.35052e-07
 2.13674e-07
 1.95072e-07
 1.78788e-07
 1.64452e-07
 1.51768e-07
 1.40492e-07
 1.30423e-07
 1.51081e-06
 1.19313e-06
 9.66498e-07
 7.98979e-07
 6.71590e-07
 5.72432e-07
 4.93726e-07
 4.30204e-07
 3.78195e-07
 3.35074e-07
 2.98926e-07
 2.68325e-07
 2.42190e-07
 2.19694e-07
 2.00191e-07
 1.83173e-07
 1.68236e-07
 1.55052e-07
 1.43359e-07
 1.32940e-07
 1.65299e-06
 1.28570e-06
 1.02980e-06
 8.43995e-07
 7.04635e-07
 5.97340e-07
 5.12925e-07
 4.45290e-07
 3.90247e-07
 3.44844e-07
 3.06948e-07
 2.74986e-07
 2.47779e-07
 2.24426e-07
 2.04230e-07
 1.86647e-07
 1.71244e-07
 1.57674e-07
 1.45657e-07
 1.34965e-07
 1.73650e-06
 1.34074e-06
 1.06800e-06
 8.71590e-07
 7.25218e-07
 6.13102e-07
 5.25263e-07
 4.55128e-07
 3.98218e-07
 3.51393e-07
 3.12393e-07
 2.79563e-07
 2.51663e-07
 2.27750e-07
 2.07097e-07
 1.89137e-07
 1.73420e-07
 1.59587e-07
 1.47348e-07
 1.36467e-07
 1.74577e-06
 1.35040e-06
 1.07678e-06
 8.79236e-07
 7.31781e-07
 6.18715e-07
 5.30069e-07
 4.59258e-07
 4.01784e-07
 3.54486e-07
 3.15091e-07
 2.81927e-07
 2.53745e-07
 2.29591e-07
 2.08733e-07
 1.90597e-07
 1.74727e-07
 1.60762e-07
 1.48408e-07
 1.37425e-07
 1.68048e-06
 1.31416e-06
 1.05572e-06
 8.66609e-07
 7.24077e-07
 6.13992e-07
 5.27202e-07
 4.57572e-07
 4.00859e-07
 3.54058e-07
 3.14988e-07
 2.82036e-07
 2.53989e-07
 2.29922e-07
 2.09115e-07
 1.91006e-07
 1.75149e-07
 1.61185e-07
 1.48825e-07
 1.37832e-07
 1.55589e-06
 1.23915e-06
 1.00841e-06
 8.35652e-07
 7.03212e-07
 5.99587e-07
 5.17060e-07
 4.50317e-07
 3.95603e-07
 3.50211e-07
 3.12151e-07
 2.79933e-07
 2.52427e-07
 2.28762e-07
 2.08256e-07
 1.90375e-07
 1.74691e-07
 1.60860e-07
 1.48601e-07
 1.37687e-07
 1.39566e-06
 1.13740e-06
 9.41362e-07
 7.90069e-07
 6.71386e-07
 5.76857e-07
 5.00509e-07
 4.38061e-07
 3.86396e-07
 3.43206e-07
 3.06763e-07
 2.75749e-07
 2.49151e-07
 2.26178e-07
 2.06207e-07
 1.88741e-07
 1.73382e-07
 1.59808e-07
 1.47754e-07
 1.37004e-07
 1.22294e-06
 1.02197e-06
 8.62187e-07
 7.34440e-07
 6.31447e-07
 5.47625e-07
 4.78745e-07
 4.21609e-07
 3.73789e-07
 3.33429e-07
 2.99098e-07
 2.69682e-07
 2.44307e-07
 2.22279e-07
 2.03047e-07
 1.86164e-07
 1.71269e-07
 1.58065e-07
 1.46311e-07
 1.35803e-07
 1.05488e-06
 9.03950e-07
 7.77971e-07
 6.73337e-07
 5.86389e-07
 5.13888e-07
 4.53125e-07
 4.01898e-07
 3.58444e-07
 3.21352e-07
 2.89499e-07
 2.61983e-07
 2.38080e-07
 2.17206e-07
 1.98884e-07
 1.82727e-07
 1.68414e-07
 1.55682e-07
 1.44311e-07
 1.34118e-07
 9.01485e-07
 7.91092e-07
 6.94302e-07
 6.10683e-07
 5.38954e-07
 4.77568e-07
 4.25007e-07
 3.79900e-07
 3.41061e-07
 3.07488e-07
 2.78345e-07
 2.52936e-07
 2.30687e-07
 2.11122e-07
 1.93845e-07
 1.78528e-07
 1.64895e-07
 1.52718e-07
 1.41803e-07
 1.31985e-07
 7.67055e-07
 6.87877e-07
 6.14977e-07
 5.49451e-07
 4.91384e-07
 4.40334e-07
 3.95631e-07
 3.56534e-07
 3.22328e-07
 2.92352e-07
 2.66024e-07
 2.42837e-07
 2.22354e-07
 2.04203e-07
 1.88066e-07
 1.73674e-07
 1.60798e-07
 1.49243e-07
 1.38841e-07
 1.29450e-07
 6.52172e-07
 5.96248e-07
 5.42185e-07
 4.91630e-07
 4.45339e-07
 4.03514e-07
 3.66034e-07
 3.32607e-07
 3.02866e-07
 2.76426e-07
 2.52913e-07
 2.31979e-07
 2.13311e-07
 1.96630e-07
 1.81691e-07
 1.68281e-07
 1.56214e-07
 1.45328e-07
 1.35484e-07
 1.26561e-07
