# vtk DataFile Version 2.0
gauge_2
ASCII
DATASET POLYDATA
POINTS 66 double
0.2 0.0314993 0.005
0.2 0.0329993 0.005
0.2 0.0344993 0.005
0.2 0.0359992 0.005
0.2 0.0374992 0.005
0.2 0.0389992 0.005
0.2 0.0404991 0.005
0.2 0.0419991 0.005
0.2 0.0434991 0.005
0.2 0.044999 0.005
0.2 0.046499 0.005
0.2 0.047999 0.005
0.2 0.0511894 0.005
0.2 0.0543799 0.005
0.2 0.0575704 0.005
0.2 0.0607609 0.005
0.2 0.0639514 0.005
0.2 0.0671419 0.005
0.2 0.0703323 0.005
0.2 0.0735228 0.005
0.2 0.0767133 0.005
0.2 0.0799038 0.005
0.2 0.0830943 0.005
0.2 0.0862847 0.005
0.2 0.0894752 0.005
0.2 0.0926657 0.005
0.2 0.0990467 0.005
0.2 0.105428 0.005
0.2 0.111809 0.005
0.2 0.11819 0.005
0.2 0.124571 0.005
0.2 0.130952 0.005
0.2 0.137332 0.005
0.2 0.150094 0.005
0.2 0.162856 0.005
0.2 0.175618 0.005
0.2 0.18838 0.005
0.2 0.201142 0.005
0.2 0.213904 0.005
0.2 0.226666 0.005
0.2 0.239428 0.005
0.2 0.25219 0.005
0.2 0.264952 0.005
0.2 0.277714 0.005
0.2 0.290476 0.005
0.2 0.303238 0.005
0.2 0.315999 0.005
0.2 0.328761 0.005
0.2 0.341523 0.005
0.2 0.354285 0.005
0.2 0.367047 0.005
0.2 0.379809 0.005
0.2 0.392571 0.005
0.2 0.405333 0.005
0.2 0.418095 0.005
0.2 0.430857 0.005
0.2 0.443619 0.005
0.2 0.456381 0.005
0.2 0.469143 0.005
0.2 0.481905 0.005
0.2 0.494666 0.005
0.2 0.507428 0.005
0.2 0.52019 0.005
0.2 0.532952 0.005
0.2 0.545714 0.005
0.2 0.558476 0.005
POINT_DATA 66
 FIELD attributes 1
alpha.water 1 66 float
1 0.999984 0.999987 0.99999 1 0.999996 0.999997 0.999998 1 0.999999 1 1 1 1 0.99882 0.984593 1.10678 0.821097 0.618471 0.381954 0.117113 0.0568837 0.00880019 0.0003415 4.84272e-05 2.89076e-05 6.67237e-06 5.39664e-07 8.26961e-08 1.38759e-08 1.82646e-09 1.56828e-10 2.47534e-09 3.58484e-09 3.38346e-10 1.08188e-12 6.86013e-13 1.36097e-12 2.67663e-12 2.0057e-12 4.19249e-13 5.35164e-14 9.43541e-15 2.36253e-15 8.81356e-16 2.22054e-16 1.84158e-17 3.23883e-19 5.13756e-21 1.30618e-22 1.06506e-24 1.63528e-27 4.04631e-30 2.81724e-32 5.47499e-35 3.61246e-38 1.51871e-42 3.33024e-47 5.04968e-51 1.72591e-55 3.53771e-59 3.19874e-64 5.02493e-68 4.24098e-72 1.15187e-77 8.61273e-84
