scalar
part
         1
quad4
 4.03329e-07
 3.83368e-07
 3.60689e-07
 3.37042e-07
 3.13562e-07
 2.90946e-07
 2.69585e-07
 2.49672e-07
 2.31270e-07
 2.14362e-07
 1.98884e-07
 1.84747e-07
 1.71848e-07
 1.60084e-07
 1.49353e-07
 1.39558e-07
 1.30610e-07
 1.22424e-07
 1.14928e-07
 1.08052e-07
 4.92475e-07
 4.58136e-07
 4.23016e-07
 3.88875e-07
 3.56675e-07
 3.26871e-07
 2.99610e-07
 2.74860e-07
 2.52489e-07
 2.32317e-07
 2.14147e-07
 1.97781e-07
 1.83031e-07
 1.69721e-07
 1.57695e-07
 1.46809e-07
 1.36938e-07
 1.27970e-07
 1.19806e-07
 1.12359e-07
 6.01238e-07
 5.46281e-07
 4.94359e-07
 4.46721e-07
 4.03750e-07
 3.65367e-07
 3.31265e-07
 3.01043e-07
 2.74276e-07
 2.50556e-07
 2.29506e-07
 2.10790e-07
 1.94110e-07
 1.79209e-07
 1.65860e-07
 1.53871e-07
 1.43075e-07
 1.33326e-07
 1.24500e-07
 1.16490e-07
 7.31767e-07
 6.48208e-07
 5.74328e-07
 5.09885e-07
 4.54027e-07
 4.05716e-07
 3.63915e-07
 3.27680e-07
 2.96181e-07
 2.68707e-07
 2.44657e-07
 2.23523e-07
 2.04882e-07
 1.88378e-07
 1.73711e-07
 1.60631e-07
 1.48924e-07
 1.38413e-07
 1.28945e-07
 1.20391e-07
 8.84401e-07
 7.62822e-07
 6.61423e-07
 5.76891e-07
 5.06212e-07
 4.46838e-07
 3.96685e-07
 3.54070e-07
 3.17644e-07
 2.86325e-07
 2.59243e-07
 2.35698e-07
 2.15120e-07
 1.97047e-07
 1.81100e-07
 1.66967e-07
 1.54389e-07
 1.43152e-07
 1.33074e-07
 1.24006e-07
 1.05610e-06
 8.86741e-07
 7.52665e-07
 6.45326e-07
 5.58416e-07
 4.87282e-07
 4.28463e-07
 3.79363e-07
 3.38013e-07
 3.02907e-07
 2.72876e-07
 2.47009e-07
 2.24583e-07
 2.05026e-07
 1.87875e-07
 1.72759e-07
 1.59371e-07
 1.47461e-07
 1.36822e-07
 1.27282e-07
 1.23876e-06
 1.01363e-06
 8.43373e-07
 7.11793e-07
 6.08187e-07
 5.25268e-07
 4.57949e-07
 4.02599e-07
 3.56575e-07
 3.17916e-07
 2.85148e-07
 2.57143e-07
 2.33030e-07
 2.12125e-07
 1.93888e-07
 1.77887e-07
 1.63774e-07
 1.51265e-07
 1.40126e-07
 1.30167e-07
 1.41812e-06
 1.13407e-06
 9.27288e-07
 7.72091e-07
 6.52658e-07
 5.58810e-07
 4.83745e-07
 4.22779e-07
 3.72602e-07
 3.30817e-07
 2.95658e-07
 2.65799e-07
 2.40228e-07
 2.18165e-07
 1.98998e-07
 1.82243e-07
 1.67512e-07
 1.54492e-07
 1.42930e-07
 1.32615e-07
 1.57450e-06
 1.23630e-06
 9.97183e-07
 8.21635e-07
 6.88841e-07
 5.85908e-07
 5.04481e-07
 4.38945e-07
 3.85412e-07
 3.41114e-07
 3.04042e-07
 2.72703e-07
 2.45973e-07
 2.22989e-07
 2.03083e-07
 1.85728e-07
 1.70507e-07
 1.57083e-07
 1.45184e-07
 1.34587e-07
 1.68588e-06
 1.30819e-06
 1.04601e-06
 8.56141e-07
 7.14033e-07
 6.04801e-07
 5.18975e-07
 4.50284e-07
 3.94433e-07
 3.48398e-07
 3.10000e-07
 2.77633e-07
 2.50094e-07
 2.26467e-07
 2.06043e-07
 1.88267e-07
 1.72699e-07
 1.58988e-07
 1.46849e-07
 1.36051e-07
 1.73368e-06
 1.34007e-06
 1.06835e-06
 8.72411e-07
 7.26254e-07
 6.14217e-07
 5.26385e-07
 4.56220e-07
 3.99262e-07
 3.52379e-07
 3.13321e-07
 2.80433e-07
 2.52477e-07
 2.28511e-07
 2.07809e-07
 1.89804e-07
 1.74045e-07
 1.60173e-07
 1.47898e-07
 1.36984e-07
 1.70942e-06
 1.32759e-06
 1.06179e-06
 8.69022e-07
 7.24622e-07
 6.13582e-07
 5.26323e-07
 4.56486e-07
 3.99709e-07
 3.52922e-07
 3.13905e-07
 2.81026e-07
 2.53061e-07
 2.29075e-07
 2.08346e-07
 1.90311e-07
 1.74522e-07
 1.60620e-07
 1.48316e-07
 1.37374e-07
 1.61866e-06
 1.27332e-06
 1.02764e-06
 8.46663e-07
 7.09517e-07
 6.03116e-07
 5.18919e-07
 4.51158e-07
 3.95821e-07
 3.50051e-07
 3.11767e-07
 2.79422e-07
 2.51851e-07
 2.28160e-07
 2.07654e-07
 1.89789e-07
 1.74129e-07
 1.60327e-07
 1.48101e-07
 1.37219e-07
 1.47891e-06
 1.18596e-06
 9.70534e-07
 8.07965e-07
 6.82502e-07
 5.83783e-07
 5.04787e-07
 4.40639e-07
 3.87867e-07
 3.43954e-07
 3.07036e-07
 2.75712e-07
 2.48914e-07
 2.25816e-07
 2.05769e-07
 1.88262e-07
 1.72886e-07
 1.59310e-07
 1.47264e-07
 1.36529e-07
 1.31273e-06
 1.07749e-06
 8.97215e-07
 7.56898e-07
 6.46012e-07
 5.57125e-07
 4.84935e-07
 4.25604e-07
 3.76311e-07
 3.34954e-07
 2.99943e-07
 2.70063e-07
 2.44373e-07
 2.22132e-07
 2.02759e-07
 1.85785e-07
 1.70833e-07
 1.57599e-07
 1.45831e-07
 1.35322e-07
 1.14060e-06
 9.59938e-07
 8.14911e-07
 6.97943e-07
 6.02901e-07
 5.25013e-07
 4.60618e-07
 4.06914e-07
 3.61753e-07
 3.23477e-07
 2.90797e-07
 2.62702e-07
 2.38394e-07
 2.17237e-07
 1.98720e-07
 1.82429e-07
 1.68028e-07
 1.55240e-07
 1.43836e-07
 1.33626e-07
 9.76966e-07
 8.42979e-07
 7.30018e-07
 6.35339e-07
 5.56018e-07
 4.89388e-07
 4.33178e-07
 3.85513e-07
 3.44868e-07
 3.10014e-07
 2.79957e-07
 2.53895e-07
 2.31180e-07
 2.11283e-07
 1.93770e-07
 1.78288e-07
 1.64542e-07
 1.52289e-07
 1.41325e-07
 1.31479e-07
 8.29833e-07
 7.33118e-07
 6.47382e-07
 5.72588e-07
 5.07866e-07
 4.52042e-07
 4.03908e-07
 3.62340e-07
 3.26347e-07
 2.95075e-07
 2.67806e-07
 2.43934e-07
 2.22953e-07
 2.04440e-07
 1.88043e-07
 1.73465e-07
 1.60458e-07
 1.48812e-07
 1.38350e-07
 1.28922e-07
 7.02214e-07
 6.33894e-07
 5.70164e-07
 5.12247e-07
 4.60429e-07
 4.14487e-07
 3.73950e-07
 3.38259e-07
 3.06841e-07
 2.79159e-07
 2.54726e-07
 2.33111e-07
 2.13940e-07
 1.96889e-07
 1.81679e-07
 1.68072e-07
 1.55865e-07
 1.44880e-07
 1.34969e-07
 1.26003e-07
 5.93992e-07
 5.46623e-07
 5.00067e-07
 4.55958e-07
 4.15126e-07
 3.77885e-07
 3.44236e-07
 3.14004e-07
 2.86931e-07
 2.62719e-07
 2.41073e-07
 2.21709e-07
 2.04364e-07
 1.88805e-07
 1.74819e-07
 1.62223e-07
 1.50854e-07
 1.40569e-07
 1.31244e-07
 1.22771e-07
