scalar
part
         1
quad4
 3.64035e-07
 3.48824e-07
 3.30530e-07
 3.10808e-07
 2.90771e-07
 2.71134e-07
 2.52332e-07
 2.34606e-07
 2.18071e-07
 2.02756e-07
 1.88640e-07
 1.75668e-07
 1.63771e-07
 1.52870e-07
 1.42886e-07
 1.33738e-07
 1.25354e-07
 1.17662e-07
 1.10598e-07
 1.04104e-07
 4.47314e-07
 4.19313e-07
 3.89808e-07
 3.60514e-07
 3.32430e-07
 3.06091e-07
 2.81734e-07
 2.59415e-07
 2.39080e-07
 2.20619e-07
 2.03891e-07
 1.88745e-07
 1.75032e-07
 1.62608e-07
 1.51342e-07
 1.41111e-07
 1.31807e-07
 1.23331e-07
 1.15598e-07
 1.08528e-07
 5.49456e-07
 5.02928e-07
 4.58132e-07
 4.16400e-07
 3.78275e-07
 3.43853e-07
 3.12987e-07
 2.85417e-07
 2.60831e-07
 2.38915e-07
 2.19365e-07
 2.01904e-07
 1.86280e-07
 1.72272e-07
 1.59685e-07
 1.48348e-07
 1.38113e-07
 1.28850e-07
 1.20446e-07
 1.12805e-07
 6.72859e-07
 6.00378e-07
 5.35385e-07
 4.77991e-07
 4.27710e-07
 3.83819e-07
 3.45541e-07
 3.12130e-07
 2.82914e-07
 2.57300e-07
 2.34776e-07
 2.14907e-07
 1.97320e-07
 1.81700e-07
 1.67783e-07
 1.55340e-07
 1.44180e-07
 1.34139e-07
 1.25079e-07
 1.16880e-07
 8.18487e-07
 7.11119e-07
 6.20484e-07
 5.44106e-07
 4.79640e-07
 4.25045e-07
 3.78606e-07
 3.38911e-07
 3.04806e-07
 2.75352e-07
 2.49785e-07
 2.27481e-07
 2.07930e-07
 1.90714e-07
 1.75488e-07
 1.61966e-07
 1.49910e-07
 1.39120e-07
 1.29430e-07
 1.20698e-07
 9.84509e-07
 8.32614e-07
 7.11002e-07
 6.12676e-07
 5.32392e-07
 4.66209e-07
 4.11153e-07
 3.64958e-07
 3.25885e-07
 2.92587e-07
 2.64011e-07
 2.39326e-07
 2.17873e-07
 1.99124e-07
 1.82650e-07
 1.68105e-07
 1.55204e-07
 1.43711e-07
 1.33432e-07
 1.24204e-07
 1.16473e-06
 9.59647e-07
 8.02886e-07
 6.80657e-07
 5.83703e-07
 5.05637e-07
 4.41937e-07
 3.89341e-07
 3.45451e-07
 3.08473e-07
 2.77047e-07
 2.50129e-07
 2.26906e-07
 2.06738e-07
 1.89117e-07
 1.73636e-07
 1.59964e-07
 1.47833e-07
 1.37021e-07
 1.27344e-07
 1.34730e-06
 1.08394e-06
 8.90423e-07
 7.44097e-07
 6.30823e-07
 5.41388e-07
 4.69573e-07
 4.11059e-07
 3.62770e-07
 3.22465e-07
 2.88485e-07
 2.59579e-07
 2.34788e-07
 2.13370e-07
 1.94743e-07
 1.78443e-07
 1.64099e-07
 1.51412e-07
 1.40136e-07
 1.30071e-07
 1.51450e-06
 1.19445e-06
 9.66612e-07
 7.98461e-07
 6.70744e-07
 5.71426e-07
 4.92654e-07
 4.29120e-07
 3.77129e-07
 3.34044e-07
 2.97939e-07
 2.67386e-07
 2.41300e-07
 2.18852e-07
 1.99396e-07
 1.82422e-07
 1.67526e-07
 1.54382e-07
 1.42725e-07
 1.32340e-07
 1.64439e-06
 1.27875e-06
 1.02408e-06
 8.39205e-07
 7.00570e-07
 5.93848e-07
 5.09894e-07
 4.42634e-07
 3.87902e-07
 3.42757e-07
 3.05079e-07
 2.73304e-07
 2.46256e-07
 2.23040e-07
 2.02965e-07
 1.85487e-07
 1.70176e-07
 1.56688e-07
 1.44744e-07
 1.34117e-07
 1.71558e-06
 1.32556e-06
 1.05650e-06
 8.62577e-07
 7.17975e-07
 6.07158e-07
 5.20300e-07
 4.50923e-07
 3.94611e-07
 3.48265e-07
 3.09656e-07
 2.77148e-07
 2.49516e-07
 2.25829e-07
 2.05369e-07
 1.87574e-07
 1.71999e-07
 1.58290e-07
 1.46159e-07
 1.35373e-07
 1.71466e-06
 1.32812e-06
 1.06015e-06
 8.66413e-07
 7.21629e-07
 6.10500e-07
 5.23301e-07
 4.53595e-07
 3.96982e-07
 3.50368e-07
 3.11523e-07
 2.78808e-07
 2.50997e-07
 2.27153e-07
 2.06557e-07
 1.88642e-07
 1.72963e-07
 1.59162e-07
 1.46951e-07
 1.36093e-07
 1.64263e-06
 1.28669e-06
 1.03509e-06
 8.50672e-07
 7.11468e-07
 6.03812e-07
 5.18841e-07
 4.50601e-07
 3.94973e-07
 3.49031e-07
 3.10651e-07
 2.78261e-07
 2.50678e-07
 2.26997e-07
 2.06514e-07
 1.88680e-07
 1.73058e-07
 1.59295e-07
 1.47110e-07
 1.36269e-07
 1.51487e-06
 1.20863e-06
 9.85108e-07
 8.17453e-07
 6.88711e-07
 5.87827e-07
 5.07377e-07
 4.42235e-07
 3.88776e-07
 3.44383e-07
 3.07128e-07
 2.75567e-07
 2.48603e-07
 2.25389e-07
 2.05263e-07
 1.87703e-07
 1.72294e-07
 1.58698e-07
 1.46643e-07
 1.35907e-07
 1.35434e-06
 1.10573e-06
 9.16661e-07
 7.70471e-07
 6.55591e-07
 5.63941e-07
 4.89808e-07
 4.29089e-07
 3.78793e-07
 3.36702e-07
 3.01149e-07
 2.70866e-07
 2.44872e-07
 2.22404e-07
 2.02858e-07
 1.85753e-07
 1.70703e-07
 1.57394e-07
 1.45570e-07
 1.35019e-07
 1.18324e-06
 9.90615e-07
 8.37153e-07
 7.14218e-07
 6.14920e-07
 5.33964e-07
 4.67331e-07
 4.11977e-07
 3.65585e-07
 3.26383e-07
 2.92998e-07
 2.64363e-07
 2.39638e-07
 2.18156e-07
 1.99385e-07
 1.82895e-07
 1.68336e-07
 1.55423e-07
 1.43920e-07
 1.33632e-07
 1.01787e-06
 8.73879e-07
 7.53403e-07
 6.53118e-07
 5.69615e-07
 4.99853e-07
 4.41283e-07
 3.91826e-07
 3.49810e-07
 3.13898e-07
 2.83018e-07
 2.56312e-07
 2.33089e-07
 2.12788e-07
 1.94954e-07
 1.79213e-07
 1.65258e-07
 1.52836e-07
 1.41734e-07
 1.31776e-07
 8.67628e-07
 7.62867e-07
 6.70735e-07
 5.90933e-07
 5.22317e-07
 4.63472e-07
 4.12989e-07
 3.69588e-07
 3.32158e-07
 2.99754e-07
 2.71586e-07
 2.46997e-07
 2.25441e-07
 2.06465e-07
 1.89692e-07
 1.74807e-07
 1.61548e-07
 1.49695e-07
 1.39063e-07
 1.29493e-07
 7.36423e-07
 6.61758e-07
 5.92732e-07
 5.30486e-07
 4.75172e-07
 4.26424e-07
 3.83643e-07
 3.46155e-07
 3.13296e-07
 2.84454e-07
 2.59085e-07
 2.36710e-07
 2.16920e-07
 1.99362e-07
 1.83736e-07
 1.69785e-07
 1.57292e-07
 1.46070e-07
 1.35960e-07
 1.26826e-07
 6.24624e-07
 5.72292e-07
 5.21418e-07
 4.73643e-07
 4.29748e-07
 3.89974e-07
 3.54241e-07
 3.22302e-07
 2.93828e-07
 2.68469e-07
 2.45879e-07
 2.25737e-07
 2.07749e-07
 1.91656e-07
 1.77227e-07
 1.64260e-07
 1.52579e-07
 1.42032e-07
 1.32486e-07
 1.23825e-07
