scalar
part
         1
quad4
 6.18583e-07
 5.67678e-07
 5.18013e-07
 4.71226e-07
 4.28117e-07
 3.88955e-07
 3.53693e-07
 3.22110e-07
 2.93902e-07
 2.68740e-07
 2.46293e-07
 2.26253e-07
 2.08336e-07
 1.92290e-07
 1.77889e-07
 1.64938e-07
 1.53263e-07
 1.42714e-07
 1.33160e-07
 1.24487e-07
 7.29393e-07
 6.56641e-07
 5.89152e-07
 5.28100e-07
 4.73692e-07
 4.25620e-07
 3.83337e-07
 3.46210e-07
 3.13610e-07
 2.84950e-07
 2.59706e-07
 2.37415e-07
 2.17677e-07
 2.00149e-07
 1.84535e-07
 1.70586e-07
 1.58085e-07
 1.46849e-07
 1.36722e-07
 1.27567e-07
 8.59609e-07
 7.57380e-07
 6.67157e-07
 5.88754e-07
 5.21145e-07
 4.63013e-07
 4.13029e-07
 3.69973e-07
 3.32775e-07
 3.00524e-07
 2.72453e-07
 2.47920e-07
 2.26391e-07
 2.07422e-07
 1.90642e-07
 1.75740e-07
 1.62459e-07
 1.50579e-07
 1.39917e-07
 1.30316e-07
 1.00907e-06
 8.68332e-07
 7.50133e-07
 6.51409e-07
 5.68960e-07
 4.99902e-07
 4.41794e-07
 3.92633e-07
 3.50801e-07
 3.14995e-07
 2.84169e-07
 2.57482e-07
 2.34254e-07
 2.13932e-07
 1.96067e-07
 1.80289e-07
 1.66294e-07
 1.53829e-07
 1.42685e-07
 1.32685e-07
 1.17427e-06
 9.85593e-07
 8.34670e-07
 7.13343e-07
 6.15051e-07
 5.34713e-07
 4.68450e-07
 4.13305e-07
 3.67020e-07
 3.27857e-07
 2.94470e-07
 2.65806e-07
 2.41036e-07
 2.19500e-07
 2.00670e-07
 1.84120e-07
 1.69501e-07
 1.56529e-07
 1.44969e-07
 1.34627e-07
 1.34644e-06
 1.10218e-06
 9.15633e-07
 7.70887e-07
 6.56816e-07
 5.65600e-07
 4.91677e-07
 4.31036e-07
 3.80738e-07
 3.38599e-07
 3.02973e-07
 2.72604e-07
 2.46519e-07
 2.23959e-07
 2.04323e-07
 1.87132e-07
 1.72001e-07
 1.58615e-07
 1.46720e-07
 1.36102e-07
 1.51012e-06
 1.20787e-06
 9.86350e-07
 8.19665e-07
 6.91346e-07
 5.90595e-07
 5.10124e-07
 4.44881e-07
 3.91284e-07
 3.46737e-07
 3.09326e-07
 2.77615e-07
 2.50507e-07
 2.27160e-07
 2.06911e-07
 1.89238e-07
 1.73725e-07
 1.60034e-07
 1.47893e-07
 1.37076e-07
 1.64380e-06
 1.29022e-06
 1.03943e-06
 8.55145e-07
 7.15781e-07
 6.07846e-07
 5.22557e-07
 4.54002e-07
 3.98076e-07
 3.51860e-07
 3.13234e-07
 2.80623e-07
 2.52842e-07
 2.28984e-07
 2.08344e-07
 1.90369e-07
 1.74620e-07
 1.60744e-07
 1.48457e-07
 1.37524e-07
 1.72442e-06
 1.33717e-06
 1.06819e-06
 8.73452e-07
 7.27774e-07
 6.15877e-07
 5.28024e-07
 4.57766e-07
 4.00684e-07
 3.53671e-07
 3.14486e-07
 2.81478e-07
 2.53414e-07
 2.29351e-07
 2.08562e-07
 1.90479e-07
 1.74652e-07
 1.60719e-07
 1.48390e-07
 1.37428e-07
 1.73514e-06
 1.34057e-06
 1.06838e-06
 8.72209e-07
 7.25936e-07
 6.13846e-07
 5.25996e-07
 4.55831e-07
 3.98884e-07
 3.52017e-07
 3.12977e-07
 2.80108e-07
 2.52170e-07
 2.28223e-07
 2.07539e-07
 1.89549e-07
 1.73805e-07
 1.59948e-07
 1.47686e-07
 1.36784e-07
 1.67256e-06
 1.29901e-06
 1.03935e-06
 8.51125e-07
 7.10137e-07
 6.01699e-07
 5.16454e-07
 4.48199e-07
 3.92683e-07
 3.46911e-07
 3.08722e-07
 2.76524e-07
 2.49124e-07
 2.25612e-07
 2.05283e-07
 1.87588e-07
 1.72089e-07
 1.58437e-07
 1.46350e-07
 1.35596e-07
 1.54798e-06
 1.21823e-06
 9.84285e-07
 8.12074e-07
 6.81536e-07
 5.80185e-07
 4.99903e-07
 4.35217e-07
 3.82329e-07
 3.38531e-07
 3.01851e-07
 2.70827e-07
 2.44351e-07
 2.21575e-07
 2.01842e-07
 1.84631e-07
 1.69532e-07
 1.56211e-07
 1.44401e-07
 1.33880e-07
 1.38211e-06
 1.10908e-06
 9.09256e-07
 7.58647e-07
 6.42360e-07
 5.50738e-07
 4.77293e-07
 4.17535e-07
 3.68276e-07
 3.27203e-07
 2.92604e-07
 2.63192e-07
 2.37983e-07
 2.16216e-07
 1.97294e-07
 1.80742e-07
 1.66182e-07
 1.53308e-07
 1.41870e-07
 1.31662e-07
 1.19762e-06
 9.84198e-07
 8.21677e-07
 6.95378e-07
 5.95482e-07
 5.15237e-07
 4.49891e-07
 3.96027e-07
 3.51142e-07
 3.13371e-07
 2.81305e-07
 2.53862e-07
 2.30205e-07
 2.09674e-07
 1.91746e-07
 1.76004e-07
 1.62108e-07
 1.49783e-07
 1.38802e-07
 1.28977e-07
 1.01358e-06
 8.55217e-07
 7.28813e-07
 6.26926e-07
 5.43965e-07
 4.75746e-07
 4.19117e-07
 3.71690e-07
 3.31639e-07
 2.97554e-07
 2.68337e-07
 2.43125e-07
 2.21234e-07
 2.02116e-07
 1.85331e-07
 1.70520e-07
 1.57390e-07
 1.45699e-07
 1.35248e-07
 1.25868e-07
 8.43084e-07
 7.31075e-07
 6.36728e-07
 5.57425e-07
 4.90663e-07
 4.34258e-07
 3.86385e-07
 3.45542e-07
 3.10511e-07
 2.80301e-07
 2.54112e-07
 2.31292e-07
 2.11310e-07
 1.93729e-07
 1.78193e-07
 1.64405e-07
 1.52120e-07
 1.41131e-07
 1.31268e-07
 1.22383e-07
 6.93132e-07
 6.17512e-07
 5.49793e-07
 4.90115e-07
 4.37951e-07
 3.92520e-07
 3.52982e-07
 3.18540e-07
 2.88474e-07
 2.62156e-07
 2.39045e-07
 2.18683e-07
 2.00680e-07
 1.84707e-07
 1.70486e-07
 1.57782e-07
 1.46396e-07
 1.36159e-07
 1.26926e-07
 1.18576e-07
 5.65943e-07
 5.17386e-07
 4.70671e-07
 4.27224e-07
 3.87612e-07
 3.51922e-07
 3.19986e-07
 2.91515e-07
 2.66172e-07
 2.43616e-07
 2.23525e-07
 2.05603e-07
 1.89587e-07
 1.75241e-07
 1.62363e-07
 1.50774e-07
 1.40319e-07
 1.30863e-07
 1.22291e-07
 1.14501e-07
 4.60660e-07
 4.31402e-07
 4.00592e-07
 3.70048e-07
 3.40824e-07
 3.13471e-07
 2.88229e-07
 2.65142e-07
 2.44147e-07
 2.25118e-07
 2.07900e-07
 1.92333e-07
 1.78255e-07
 1.65515e-07
 1.53973e-07
 1.43502e-07
 1.33987e-07
 1.25327e-07
 1.17429e-07
 1.10215e-07
 3.74852e-07
 3.58897e-07
 3.39742e-07
 3.19134e-07
 2.98243e-07
 2.77814e-07
 2.58294e-07
 2.39929e-07
 2.22829e-07
 2.07019e-07
 1.92468e-07
 1.79116e-07
 1.66887e-07
 1.55694e-07
 1.45453e-07
 1.36080e-07
 1.27495e-07
 1.19627e-07
 1.12406e-07
 1.05772e-07
