scalar
part
         1
quad4
 3.41387e-07
 3.29754e-07
 3.14510e-07
 2.97352e-07
 2.79452e-07
 2.61587e-07
 2.44252e-07
 2.27742e-07
 2.12215e-07
 1.97739e-07
 1.84323e-07
 1.71939e-07
 1.60536e-07
 1.50052e-07
 1.40422e-07
 1.31576e-07
 1.23450e-07
 1.15980e-07
 1.09108e-07
 1.02779e-07
 4.22722e-07
 3.99087e-07
 3.73178e-07
 3.46810e-07
 3.21097e-07
 2.96677e-07
 2.73874e-07
 2.52817e-07
 2.33512e-07
 2.15895e-07
 1.99862e-07
 1.85293e-07
 1.72059e-07
 1.60036e-07
 1.49107e-07
 1.39162e-07
 1.30100e-07
 1.21832e-07
 1.14276e-07
 1.07359e-07
 5.23106e-07
 4.81842e-07
 4.41208e-07
 4.02747e-07
 3.67193e-07
 3.34795e-07
 3.05533e-07
 2.79238e-07
 2.55677e-07
 2.34586e-07
 2.15708e-07
 1.98796e-07
 1.83625e-07
 1.69992e-07
 1.57718e-07
 1.46644e-07
 1.36630e-07
 1.27554e-07
 1.19311e-07
 1.11807e-07
 6.45238e-07
 5.78960e-07
 5.18653e-07
 4.64804e-07
 4.17218e-07
 3.75392e-07
 3.38710e-07
 3.06545e-07
 2.78310e-07
 2.53475e-07
 2.31577e-07
 2.12214e-07
 1.95039e-07
 1.79758e-07
 1.66120e-07
 1.53910e-07
 1.42946e-07
 1.33070e-07
 1.24149e-07
 1.16068e-07
 7.90539e-07
 6.90208e-07
 6.04630e-07
 5.31921e-07
 4.70151e-07
 4.17564e-07
 3.72641e-07
 3.34104e-07
 3.00896e-07
 2.72144e-07
 2.47132e-07
 2.25272e-07
 2.06079e-07
 1.89154e-07
 1.74167e-07
 1.60841e-07
 1.48948e-07
 1.38296e-07
 1.28720e-07
 1.20085e-07
 9.57804e-07
 8.13415e-07
 6.96914e-07
 6.02140e-07
 5.24377e-07
 4.60018e-07
 4.06306e-07
 3.61119e-07
 3.22811e-07
 2.90103e-07
 2.61987e-07
 2.37666e-07
 2.16503e-07
 1.97986e-07
 1.81702e-07
 1.67311e-07
 1.54536e-07
 1.43149e-07
 1.32957e-07
 1.23802e-07
 1.14155e-06
 9.43710e-07
 7.91609e-07
 6.72481e-07
 5.77653e-07
 5.01080e-07
 4.38455e-07
 3.86647e-07
 3.43344e-07
 3.06811e-07
 2.75727e-07
 2.49075e-07
 2.26060e-07
 2.06057e-07
 1.88568e-07
 1.73193e-07
 1.59608e-07
 1.47547e-07
 1.36792e-07
 1.27163e-07
 1.33051e-06
 1.07300e-06
 8.83036e-07
 7.38973e-07
 6.27193e-07
 5.38774e-07
 4.67669e-07
 4.09662e-07
 3.61739e-07
 3.21705e-07
 2.87928e-07
 2.59175e-07
 2.34501e-07
 2.13173e-07
 1.94614e-07
 1.78368e-07
 1.64067e-07
 1.51412e-07
 1.40163e-07
 1.30118e-07
 1.50695e-06
 1.19008e-06
 9.64030e-07
 7.96946e-07
 6.69887e-07
 5.70986e-07
 4.92484e-07
 4.29126e-07
 3.77251e-07
 3.34241e-07
 2.98186e-07
 2.67662e-07
 2.41594e-07
 2.19155e-07
 1.99701e-07
 1.82726e-07
 1.67826e-07
 1.54676e-07
 1.43012e-07
 1.32619e-07
 1.64798e-06
 1.28191e-06
 1.02683e-06
 8.41608e-07
 7.02675e-07
 5.95702e-07
 5.11536e-07
 4.44097e-07
 3.89212e-07
 3.43937e-07
 3.06147e-07
 2.74274e-07
 2.47141e-07
 2.23851e-07
 2.03710e-07
 1.86174e-07
 1.70812e-07
 1.57278e-07
 1.45293e-07
 1.34628e-07
 1.73040e-06
 1.33626e-06
 1.06457e-06
 8.68880e-07
 7.23023e-07
 6.11289e-07
 5.23740e-07
 4.53831e-07
 3.97100e-07
 3.50419e-07
 3.11538e-07
 2.78805e-07
 2.50987e-07
 2.27143e-07
 2.06550e-07
 1.88641e-07
 1.72968e-07
 1.59173e-07
 1.46968e-07
 1.36116e-07
 1.73886e-06
 1.34539e-06
 1.07299e-06
 8.76268e-07
 7.29396e-07
 6.16758e-07
 5.28435e-07
 4.57874e-07
 4.00596e-07
 3.53455e-07
 3.14188e-07
 2.81130e-07
 2.53035e-07
 2.28956e-07
 2.08162e-07
 1.90079e-07
 1.74257e-07
 1.60332e-07
 1.48014e-07
 1.37063e-07
 1.67322e-06
 1.30887e-06
 1.05171e-06
 8.63474e-07
 7.21563e-07
 6.11933e-07
 5.25486e-07
 4.56120e-07
 3.99616e-07
 3.52981e-07
 3.14046e-07
 2.81206e-07
 2.53253e-07
 2.29263e-07
 2.08523e-07
 1.90471e-07
 1.74663e-07
 1.60741e-07
 1.48418e-07
 1.37458e-07
 1.54877e-06
 1.23386e-06
 1.00435e-06
 8.32456e-07
 7.00637e-07
 5.97472e-07
 5.15295e-07
 4.48823e-07
 3.94323e-07
 3.49103e-07
 3.11182e-07
 2.79080e-07
 2.51670e-07
 2.28085e-07
 2.07648e-07
 1.89826e-07
 1.74193e-07
 1.60405e-07
 1.48185e-07
 1.37305e-07
 1.38903e-06
 1.13233e-06
 9.37405e-07
 7.86911e-07
 6.68818e-07
 5.74734e-07
 4.98729e-07
 4.36549e-07
 3.85097e-07
 3.42080e-07
 3.05777e-07
 2.74880e-07
 2.48380e-07
 2.25488e-07
 2.05587e-07
 1.88181e-07
 1.72874e-07
 1.59344e-07
 1.47330e-07
 1.36614e-07
 1.21701e-06
 1.01729e-06
 8.58445e-07
 7.31402e-07
 6.28946e-07
 5.45538e-07
 4.76982e-07
 4.20103e-07
 3.72490e-07
 3.32299e-07
 2.98107e-07
 2.68806e-07
 2.43528e-07
 2.21582e-07
 2.02420e-07
 1.85597e-07
 1.70754e-07
 1.57596e-07
 1.45881e-07
 1.35408e-07
 1.04969e-06
 8.99733e-07
 7.74515e-07
 6.70478e-07
 5.84001e-07
 5.11872e-07
 4.51406e-07
 4.00420e-07
 3.57162e-07
 3.20232e-07
 2.88512e-07
 2.61109e-07
 2.37301e-07
 2.16507e-07
 1.98254e-07
 1.82157e-07
 1.67896e-07
 1.55209e-07
 1.43877e-07
 1.33719e-07
 8.97025e-07
 7.87356e-07
 6.91165e-07
 6.08038e-07
 5.36709e-07
 4.75649e-07
 4.23355e-07
 3.78468e-07
 3.39810e-07
 3.06389e-07
 2.77372e-07
 2.52071e-07
 2.29913e-07
 2.10426e-07
 1.93217e-07
 1.77958e-07
 1.64376e-07
 1.52244e-07
 1.41368e-07
 1.31585e-07
 7.63245e-07
 6.84601e-07
 6.12165e-07
 5.47034e-07
 4.89300e-07
 4.38530e-07
 3.94061e-07
 3.55161e-07
 3.21119e-07
 2.91283e-07
 2.65074e-07
 2.41988e-07
 2.21592e-07
 2.03515e-07
 1.87444e-07
 1.73108e-07
 1.60282e-07
 1.48770e-07
 1.38406e-07
 1.29050e-07
 6.48925e-07
 5.93391e-07
 5.39683e-07
 4.89441e-07
 4.43424e-07
 4.01834e-07
 3.64556e-07
 3.31301e-07
 3.01709e-07
 2.75396e-07
 2.51992e-07
 2.31152e-07
 2.12565e-07
 1.95955e-07
 1.81078e-07
 1.67722e-07
 1.55703e-07
 1.44859e-07
 1.35053e-07
 1.26162e-07
