scalar
part
         1
quad4
 4.23536e-07
 4.00007e-07
 3.74310e-07
 3.48150e-07
 3.22601e-07
 2.98292e-07
 2.75552e-07
 2.54518e-07
 2.35204e-07
 2.17554e-07
 2.01470e-07
 1.86837e-07
 1.73533e-07
 1.61436e-07
 1.50431e-07
 1.40409e-07
 1.31272e-07
 1.22931e-07
 1.15306e-07
 1.08323e-07
 5.13929e-07
 4.75303e-07
 4.36686e-07
 3.99731e-07
 3.65284e-07
 3.33694e-07
 3.05016e-07
 2.79140e-07
 2.55873e-07
 2.34986e-07
 2.16244e-07
 1.99419e-07
 1.84299e-07
 1.70691e-07
 1.58422e-07
 1.47341e-07
 1.37310e-07
 1.28211e-07
 1.19941e-07
 1.12407e-07
 6.23554e-07
 5.63520e-07
 5.07632e-07
 4.56924e-07
 4.11587e-07
 3.71383e-07
 3.35876e-07
 3.04568e-07
 2.76958e-07
 2.52580e-07
 2.31016e-07
 2.11896e-07
 1.94897e-07
 1.79744e-07
 1.66196e-07
 1.54048e-07
 1.43126e-07
 1.33277e-07
 1.24373e-07
 1.16300e-07
 7.54196e-07
 6.64787e-07
 5.86560e-07
 5.18901e-07
 4.60664e-07
 4.10585e-07
 3.67466e-07
 3.30242e-07
 2.97998e-07
 2.69959e-07
 2.45479e-07
 2.24017e-07
 2.05125e-07
 1.88428e-07
 1.73614e-07
 1.60421e-07
 1.48629e-07
 1.38053e-07
 1.28537e-07
 1.19947e-07
 9.05653e-07
 7.77642e-07
 6.71741e-07
 5.84049e-07
 5.11138e-07
 4.50177e-07
 3.98886e-07
 3.55451e-07
 3.18430e-07
 2.86678e-07
 2.59280e-07
 2.35504e-07
 2.14759e-07
 1.96566e-07
 1.80533e-07
 1.66341e-07
 1.53723e-07
 1.42461e-07
 1.32370e-07
 1.23296e-07
 1.07414e-06
 8.98276e-07
 7.59962e-07
 6.49832e-07
 5.61066e-07
 4.88683e-07
 4.29020e-07
 3.79346e-07
 3.37609e-07
 3.02241e-07
 2.72038e-07
 2.46059e-07
 2.23566e-07
 2.03972e-07
 1.86807e-07
 1.71691e-07
 1.58315e-07
 1.46424e-07
 1.35809e-07
 1.26296e-07
 1.25070e-06
 1.01996e-06
 8.46373e-07
 7.12797e-07
 6.07983e-07
 5.24335e-07
 4.56585e-07
 4.00991e-07
 3.54840e-07
 3.16130e-07
 2.83359e-07
 2.55382e-07
 2.31315e-07
 2.10468e-07
 1.92294e-07
 1.76360e-07
 1.62314e-07
 1.49870e-07
 1.38796e-07
 1.28898e-07
 1.42041e-06
 1.13307e-06
 9.24703e-07
 7.68785e-07
 6.49084e-07
 5.55205e-07
 4.80233e-07
 4.19423e-07
 3.69429e-07
 3.27835e-07
 2.92865e-07
 2.63187e-07
 2.37787e-07
 2.15883e-07
 1.96863e-07
 1.80244e-07
 1.65638e-07
 1.52734e-07
 1.41277e-07
 1.31060e-07
 1.56364e-06
 1.22611e-06
 9.87968e-07
 8.13412e-07
 6.81531e-07
 5.79404e-07
 4.98678e-07
 4.33748e-07
 3.80739e-07
 3.36895e-07
 3.00217e-07
 2.69222e-07
 2.42792e-07
 2.20074e-07
 2.00401e-07
 1.83254e-07
 1.68218e-07
 1.54959e-07
 1.43208e-07
 1.32745e-07
 1.65970e-06
 1.28779e-06
 1.02965e-06
 8.42740e-07
 7.02849e-07
 5.95325e-07
 5.10844e-07
 4.43229e-07
 3.88254e-07
 3.42942e-07
 3.05146e-07
 2.73287e-07
 2.46181e-07
 2.22924e-07
 2.02821e-07
 1.85323e-07
 1.69999e-07
 1.56503e-07
 1.44555e-07
 1.33926e-07
 1.69254e-06
 1.30977e-06
 1.04510e-06
 8.54022e-07
 7.11342e-07
 6.01881e-07
 5.16011e-07
 4.47375e-07
 3.91631e-07
 3.45729e-07
 3.07474e-07
 2.75251e-07
 2.47853e-07
 2.24360e-07
 2.04062e-07
 1.86404e-07
 1.70947e-07
 1.57338e-07
 1.45294e-07
 1.34584e-07
 1.65641e-06
 1.28909e-06
 1.03268e-06
 8.46285e-07
 7.06405e-07
 5.98678e-07
 5.13915e-07
 4.46002e-07
 3.90740e-07
 3.45163e-07
 3.07130e-07
 2.75061e-07
 2.47769e-07
 2.24350e-07
 2.04102e-07
 1.86479e-07
 1.71044e-07
 1.57450e-07
 1.45415e-07
 1.34709e-07
 1.55855e-06
 1.22928e-06
 9.94220e-07
 8.20561e-07
 6.88639e-07
 5.86080e-07
 5.04782e-07
 4.39256e-07
 3.85675e-07
 3.41307e-07
 3.04159e-07
 2.72746e-07
 2.45949e-07
 2.22907e-07
 2.02950e-07
 1.85553e-07
 1.70296e-07
 1.56843e-07
 1.44921e-07
 1.34305e-07
 1.41656e-06
 1.13926e-06
 9.34597e-07
 7.79649e-07
 6.59731e-07
 5.65144e-07
 4.89295e-07
 4.27589e-07
 3.76744e-07
 3.34375e-07
 2.98709e-07
 2.68415e-07
 2.42472e-07
 2.20090e-07
 2.00650e-07
 1.83661e-07
 1.68729e-07
 1.55537e-07
 1.43826e-07
 1.33383e-07
 1.25191e-06
 1.03064e-06
 8.60435e-07
 7.27505e-07
 6.22134e-07
 5.37439e-07
 4.68490e-07
 4.11701e-07
 3.64432e-07
 3.24706e-07
 2.91028e-07
 2.62246e-07
 2.37470e-07
 2.15999e-07
 1.97277e-07
 1.80859e-07
 1.66387e-07
 1.53566e-07
 1.42159e-07
 1.31965e-07
 1.08368e-06
 9.14765e-07
 7.78640e-07
 6.68457e-07
 5.78636e-07
 5.04810e-07
 4.43611e-07
 3.92453e-07
 3.49343e-07
 3.12736e-07
 2.81428e-07
 2.54472e-07
 2.31117e-07
 2.10765e-07
 1.92931e-07
 1.77226e-07
 1.63330e-07
 1.50979e-07
 1.39956e-07
 1.30081e-07
 9.25097e-07
 8.00617e-07
 6.95216e-07
 6.06528e-07
 5.31963e-07
 4.69129e-07
 4.15968e-07
 3.70772e-07
 3.32144e-07
 2.98950e-07
 2.70270e-07
 2.45361e-07
 2.23616e-07
 2.04542e-07
 1.87733e-07
 1.72855e-07
 1.59632e-07
 1.47833e-07
 1.37265e-07
 1.27768e-07
 7.83326e-07
 6.94127e-07
 6.14641e-07
 5.44989e-07
 4.84477e-07
 4.32102e-07
 3.86799e-07
 3.47565e-07
 3.13505e-07
 2.83847e-07
 2.57930e-07
 2.35199e-07
 2.15187e-07
 1.97502e-07
 1.81815e-07
 1.67851e-07
 1.55376e-07
 1.44195e-07
 1.34140e-07
 1.25070e-07
 6.60887e-07
 5.98433e-07
 5.39783e-07
 4.86192e-07
 4.38025e-07
 3.95148e-07
 3.57183e-07
 3.23652e-07
 2.94052e-07
 2.67907e-07
 2.44777e-07
 2.24273e-07
 2.06052e-07
 1.89819e-07
 1.75316e-07
 1.62324e-07
 1.50651e-07
 1.40136e-07
 1.30637e-07
 1.22034e-07
 5.57417e-07
 5.14603e-07
 4.72133e-07
 4.31617e-07
 3.93903e-07
 3.59344e-07
 3.27993e-07
 2.99727e-07
 2.74335e-07
 2.51563e-07
 2.31154e-07
 2.12854e-07
 1.96429e-07
 1.81667e-07
 1.68375e-07
 1.56386e-07
 1.45548e-07
 1.35730e-07
 1.26818e-07
 1.18711e-07
