scalar
part
         1
quad4
 4.09142e-07
 3.87273e-07
 3.63201e-07
 3.38547e-07
 3.14345e-07
 2.91212e-07
 2.69485e-07
 2.49313e-07
 2.30731e-07
 2.13699e-07
 1.98138e-07
 1.83947e-07
 1.71018e-07
 1.59238e-07
 1.48503e-07
 1.38713e-07
 1.29775e-07
 1.21604e-07
 1.14125e-07
 1.07270e-07
 4.96878e-07
 4.60627e-07
 4.24207e-07
 3.89193e-07
 3.56411e-07
 3.26225e-07
 2.98720e-07
 2.73817e-07
 2.51356e-07
 2.31138e-07
 2.12951e-07
 1.96588e-07
 1.81854e-07
 1.68570e-07
 1.56575e-07
 1.45724e-07
 1.35889e-07
 1.26958e-07
 1.18832e-07
 1.11421e-07
 6.03380e-07
 5.46723e-07
 4.93767e-07
 4.45519e-07
 4.02202e-07
 3.63639e-07
 3.29461e-07
 2.99225e-07
 2.72484e-07
 2.48812e-07
 2.27824e-07
 2.09176e-07
 1.92567e-07
 1.77737e-07
 1.64458e-07
 1.52536e-07
 1.41804e-07
 1.32117e-07
 1.23349e-07
 1.15394e-07
 7.30534e-07
 6.45840e-07
 5.71441e-07
 5.06818e-07
 4.50962e-07
 4.02747e-07
 3.61087e-07
 3.25011e-07
 2.93675e-07
 2.66359e-07
 2.42459e-07
 2.21467e-07
 2.02957e-07
 1.86573e-07
 1.72017e-07
 1.59039e-07
 1.47427e-07
 1.37002e-07
 1.27614e-07
 1.19133e-07
 8.78462e-07
 7.56823e-07
 6.55735e-07
 5.71645e-07
 5.01431e-07
 4.42499e-07
 3.92749e-07
 3.50494e-07
 3.14386e-07
 2.83348e-07
 2.56514e-07
 2.33187e-07
 2.12803e-07
 1.94903e-07
 1.79111e-07
 1.65116e-07
 1.52663e-07
 1.41538e-07
 1.31562e-07
 1.22587e-07
 1.04409e-06
 8.76368e-07
 7.43766e-07
 6.37671e-07
 5.51788e-07
 4.81498e-07
 4.23375e-07
 3.74853e-07
 3.33988e-07
 2.99291e-07
 2.69609e-07
 2.44041e-07
 2.21875e-07
 2.02543e-07
 1.85591e-07
 1.70650e-07
 1.57417e-07
 1.45646e-07
 1.35131e-07
 1.25702e-07
 1.21964e-06
 9.98437e-07
 8.31073e-07
 7.01654e-07
 5.99687e-07
 5.18036e-07
 4.51716e-07
 3.97166e-07
 3.51793e-07
 3.13672e-07
 2.81352e-07
 2.53727e-07
 2.29937e-07
 2.09311e-07
 1.91315e-07
 1.75526e-07
 1.61598e-07
 1.49252e-07
 1.38260e-07
 1.28430e-07
 1.39177e-06
 1.11415e-06
 9.11730e-07
 7.59596e-07
 6.42391e-07
 5.50211e-07
 4.76429e-07
 4.16472e-07
 3.67102e-07
 3.25975e-07
 2.91359e-07
 2.61954e-07
 2.36768e-07
 2.15033e-07
 1.96148e-07
 1.79638e-07
 1.65121e-07
 1.52290e-07
 1.40894e-07
 1.30727e-07
 1.54213e-06
 1.21247e-06
 9.78897e-07
 8.07135e-07
 6.77044e-07
 5.76109e-07
 4.96201e-07
 4.31850e-07
 3.79259e-07
 3.35724e-07
 2.99278e-07
 2.68460e-07
 2.42168e-07
 2.19558e-07
 1.99971e-07
 1.82893e-07
 1.67913e-07
 1.54699e-07
 1.42986e-07
 1.32555e-07
 1.65010e-06
 1.28190e-06
 1.02584e-06
 8.40166e-07
 7.01050e-07
 5.94033e-07
 5.09895e-07
 4.42519e-07
 3.87714e-07
 3.42525e-07
 3.04821e-07
 2.73032e-07
 2.45978e-07
 2.22763e-07
 2.02691e-07
 1.85219e-07
 1.69916e-07
 1.56436e-07
 1.44500e-07
 1.33882e-07
 1.69766e-06
 1.31302e-06
 1.04729e-06
 8.55572e-07
 7.12485e-07
 6.02751e-07
 5.16693e-07
 4.47922e-07
 3.92078e-07
 3.46101e-07
 3.07788e-07
 2.75520e-07
 2.48086e-07
 2.24563e-07
 2.04241e-07
 1.86563e-07
 1.71089e-07
 1.57466e-07
 1.45410e-07
 1.34689e-07
 1.67568e-06
 1.30122e-06
 1.04074e-06
 8.51897e-07
 7.10455e-07
 6.01692e-07
 5.16217e-07
 4.47800e-07
 3.92170e-07
 3.46321e-07
 3.08082e-07
 2.75853e-07
 2.48436e-07
 2.24917e-07
 2.04589e-07
 1.86901e-07
 1.71412e-07
 1.57774e-07
 1.45701e-07
 1.34964e-07
 1.58828e-06
 1.24849e-06
 1.00722e-06
 8.29708e-07
 6.95286e-07
 5.91047e-07
 5.08582e-07
 4.42224e-07
 3.88035e-07
 3.43214e-07
 3.05720e-07
 2.74042e-07
 2.47036e-07
 2.23827e-07
 2.03737e-07
 1.86232e-07
 1.70886e-07
 1.57358e-07
 1.45374e-07
 1.34707e-07
 1.45177e-06
 1.16293e-06
 9.51078e-07
 7.91482e-07
 6.68460e-07
 5.71737e-07
 4.94381e-07
 4.31584e-07
 3.79935e-07
 3.36960e-07
 3.00832e-07
 2.70178e-07
 2.43952e-07
 2.21344e-07
 2.01722e-07
 1.84584e-07
 1.69530e-07
 1.56237e-07
 1.44441e-07
 1.33926e-07
 1.28819e-06
 1.05618e-06
 8.78828e-07
 7.41054e-07
 6.32327e-07
 5.45256e-07
 4.74591e-07
 4.16539e-07
 3.68324e-07
 3.27878e-07
 2.93643e-07
 2.64426e-07
 2.39305e-07
 2.17557e-07
 1.98611e-07
 1.82010e-07
 1.67385e-07
 1.54439e-07
 1.42926e-07
 1.32643e-07
 1.11809e-06
 9.40136e-07
 7.97588e-07
 6.82816e-07
 5.89681e-07
 5.13432e-07
 4.50437e-07
 3.97928e-07
 3.53788e-07
 3.16387e-07
 2.84457e-07
 2.57009e-07
 2.33262e-07
 2.12592e-07
 1.94500e-07
 1.78582e-07
 1.64510e-07
 1.52011e-07
 1.40865e-07
 1.30884e-07
 9.56131e-07
 8.24528e-07
 7.13719e-07
 6.20959e-07
 5.43326e-07
 4.78169e-07
 4.23238e-07
 3.76679e-07
 3.36991e-07
 3.02965e-07
 2.73627e-07
 2.48191e-07
 2.26021e-07
 2.06600e-07
 1.89506e-07
 1.74393e-07
 1.60973e-07
 1.49010e-07
 1.38303e-07
 1.28687e-07
 8.10517e-07
 7.15915e-07
 6.32070e-07
 5.58964e-07
 4.95740e-07
 4.41238e-07
 3.94265e-07
 3.53714e-07
 3.18610e-07
 2.88118e-07
 2.61530e-07
 2.38255e-07
 2.17799e-07
 1.99749e-07
 1.83760e-07
 1.69544e-07
 1.56858e-07
 1.45498e-07
 1.35292e-07
 1.26093e-07
 6.84344e-07
 6.17879e-07
 5.55809e-07
 4.99379e-07
 4.48890e-07
 4.04131e-07
 3.64645e-07
 3.29883e-07
 2.99287e-07
 2.72331e-07
 2.48539e-07
 2.27491e-07
 2.08821e-07
 1.92214e-07
 1.77400e-07
 1.64145e-07
 1.52252e-07
 1.41548e-07
 1.31890e-07
 1.23149e-07
 5.77515e-07
 5.31752e-07
 4.86643e-07
 4.43839e-07
 4.04184e-07
 3.67999e-07
 3.35296e-07
 3.05911e-07
 2.79591e-07
 2.56053e-07
 2.35005e-07
 2.16175e-07
 1.99306e-07
 1.84171e-07
 1.70565e-07
 1.58309e-07
 1.47245e-07
 1.37233e-07
 1.28155e-07
 1.19904e-07
