# vtk DataFile Version 2.0
gauge_2
ASCII
DATASET POLYDATA
POINTS 73 double
0.2 0.0314993 0.005
0.2 0.0329993 0.005
0.2 0.0344993 0.005
0.2 0.0359992 0.005
0.2 0.0374992 0.005
0.2 0.0389992 0.005
0.2 0.0404991 0.005
0.2 0.0419991 0.005
0.2 0.0434991 0.005
0.2 0.044999 0.005
0.2 0.046499 0.005
0.2 0.047999 0.005
0.2 0.0511894 0.005
0.2 0.0543799 0.005
0.2 0.0575704 0.005
0.2 0.0607609 0.005
0.2 0.0639514 0.005
0.2 0.0671419 0.005
0.2 0.0703323 0.005
0.2 0.0735228 0.005
0.2 0.0767133 0.005
0.2 0.0799038 0.005
0.2 0.0830943 0.005
0.2 0.0862847 0.005
0.2 0.0894752 0.005
0.2 0.0926657 0.005
0.2 0.0958562 0.005
0.2 0.0990467 0.005
0.2 0.102237 0.005
0.2 0.105428 0.005
0.2 0.108618 0.005
0.2 0.111809 0.005
0.2 0.114999 0.005
0.2 0.11819 0.005
0.2 0.12138 0.005
0.2 0.124571 0.005
0.2 0.127761 0.005
0.2 0.130952 0.005
0.2 0.137332 0.005
0.2 0.143713 0.005
0.2 0.150094 0.005
0.2 0.162856 0.005
0.2 0.175618 0.005
0.2 0.18838 0.005
0.2 0.201142 0.005
0.2 0.213904 0.005
0.2 0.226666 0.005
0.2 0.239428 0.005
0.2 0.25219 0.005
0.2 0.264952 0.005
0.2 0.277714 0.005
0.2 0.290476 0.005
0.2 0.303238 0.005
0.2 0.315999 0.005
0.2 0.328761 0.005
0.2 0.341523 0.005
0.2 0.354285 0.005
0.2 0.367047 0.005
0.2 0.379809 0.005
0.2 0.392571 0.005
0.2 0.405333 0.005
0.2 0.418095 0.005
0.2 0.430857 0.005
0.2 0.443619 0.005
0.2 0.456381 0.005
0.2 0.469143 0.005
0.2 0.481905 0.005
0.2 0.494666 0.005
0.2 0.507428 0.005
0.2 0.52019 0.005
0.2 0.532952 0.005
0.2 0.545714 0.005
0.2 0.558476 0.005
POINT_DATA 73
 FIELD attributes 1
alpha.water 1 73 float
1 1 1 1 1 1 1 1 1 1 1 1 1 1 1 1 1 1 1 1 1 1 1 1 1 1 1 0.999999 1 0.999872 0.985009 0.79579 0.192385 0.0900669 0.00665007 3.36792e-05 3.8649e-06 1.55919e-05 8.17893e-05 7.75381e-05 5.20183e-05 1.82354e-05 4.18543e-11 6.25782e-12 5.55068e-12 8.38947e-13 5.16362e-13 1.51108e-14 4.38115e-15 1.69725e-15 7.39185e-16 1.09153e-16 2.71759e-17 1.11005e-17 2.18652e-18 5.86486e-20 1.05342e-22 3.75866e-26 1.00797e-28 2.60116e-31 1.56601e-33 3.88758e-36 3.09252e-39 3.57085e-43 2.90075e-46 2.95914e-49 2.34395e-52 1.17957e-55 1.86767e-59 7.77909e-63 2.11653e-66 2.84132e-70 1.08378e-74
