# vtk DataFile Version 2.0
gauge_2
ASCII
DATASET POLYDATA
POINTS 43 double
0.2 0.0359992 0.005
0.2 0.0419991 0.005
0.2 0.047999 0.005
0.2 0.0607609 0.005
0.2 0.0735228 0.005
0.2 0.0862847 0.005
0.2 0.0990467 0.005
0.2 0.111809 0.005
0.2 0.124571 0.005
0.2 0.137332 0.005
0.2 0.150094 0.005
0.2 0.162856 0.005
0.2 0.175618 0.005
0.2 0.18838 0.005
0.2 0.201142 0.005
0.2 0.213904 0.005
0.2 0.226666 0.005
0.2 0.239428 0.005
0.2 0.25219 0.005
0.2 0.264952 0.005
0.2 0.277714 0.005
0.2 0.290476 0.005
0.2 0.303238 0.005
0.2 0.315999 0.005
0.2 0.328761 0.005
0.2 0.341523 0.005
0.2 0.354285 0.005
0.2 0.367047 0.005
0.2 0.379809 0.005
0.2 0.392571 0.005
0.2 0.405333 0.005
0.2 0.418095 0.005
0.2 0.430857 0.005
0.2 0.443619 0.005
0.2 0.456381 0.005
0.2 0.469143 0.005
0.2 0.481905 0.005
0.2 0.494666 0.005
0.2 0.507428 0.005
0.2 0.52019 0.005
0.2 0.532952 0.005
0.2 0.545714 0.005
0.2 0.558476 0.005
POINT_DATA 43
 FIELD attributes 1
alpha.water 1 43 float
7.31179e-08 3.50591e-08 1.76485e-08 6.1078e-09 2.52309e-09 7.46431e-10 2.25905e-10 7.22655e-11 2.32516e-11 7.6836e-12 3.96193e-12 3.62009e-12 3.19026e-12 1.90732e-12 6.53233e-13 8.17002e-14 7.62855e-15 -9.70916e-15 -4.38559e-15 -9.8274e-15 -5.18178e-15 -2.04553e-16 -4.12288e-19 1.07101e-19 4.57997e-21 7.86578e-23 7.57897e-25 4.68413e-27 1.77376e-29 3.35282e-32 2.49658e-35 7.01981e-37 1.45598e-39 3.90769e-43 7.45985e-49 2.33461e-52 3.41106e-59 1.38489e-62 1.26979e-66 5.86752e-74 1.22326e-77 1.01411e-81 2.76911e-89
