// State file for writer output

times           101 ( 100.0000000000143 101.0000000000148 102.0000000000153 103.0000000000158 104.0000000000163 105.0000000000168 106.0000000000173 107.0000000000178 108.0000000000183 109.0000000000189 110.0000000000194 111.0000000000199 112.0000000000204 113.0000000000209 114.0000000000214 115.0000000000219 116.0000000000224 117.000000000023 118.0000000000235 119.000000000024 120.0000000000245 121.000000000025 122.0000000000255 123.000000000026 124.0000000000265 125.000000000027 126.0000000000276 127.0000000000281 128.0000000000286 129.0000000000277 130.0000000000267 131.0000000000258 132.0000000000249 133.000000000024 134.0000000000231 135.0000000000222 136.0000000000213 137.0000000000204 138.0000000000195 139.0000000000186 140.0000000000176 141.0000000000167 142.0000000000158 143.0000000000149 144.000000000014 145.0000000000131 146.0000000000122 147.0000000000113 148.0000000000104 149.0000000000095 150.0000000000086 151.0000000000076 152.0000000000067 153.0000000000058 154.0000000000049 155.000000000004 156.0000000000031 157.0000000000022 158.0000000000013 159.0000000000004 159.9999999999995 160.9999999999986 161.9999999999976 162.9999999999967 163.9999999999958 164.9999999999949 165.999999999994 166.9999999999931 167.9999999999922 168.9999999999913 169.9999999999904 170.9999999999895 171.9999999999885 172.9999999999876 173.9999999999867 174.9999999999858 175.9999999999849 176.999999999984 177.9999999999831 178.9999999999822 179.9999999999813 180.9999999999804 181.9999999999795 182.9999999999785 183.9999999999776 184.9999999999767 185.9999999999758 186.9999999999749 187.999999999974 188.9999999999731 189.9999999999722 190.9999999999713 191.9999999999704 192.9999999999694 193.9999999999685 194.9999999999676 195.9999999999667 196.9999999999658 197.9999999999649 198.999999999964 199.9999999999631 );

geometry        1 ( 0 );

fields
{
    p
    {
        type            "scalar";
    }
    U
    {
        type            "vector";
    }
}

// End
