FORMAT
type: ensight gold

GEOMETRY
model:  data/00000000/geometry

VARIABLE
scalar per element: 1  p               data/********/p
vector per element: 1  U               data/********/U

TIME
time set:               1
number of steps:        101
filename start number:  0
filename increment:     1
time values:
  1.00000e+02  1.01000e+02  1.02000e+02  1.03000e+02  1.04000e+02  1.05000e+02
  1.06000e+02  1.07000e+02  1.08000e+02  1.09000e+02  1.10000e+02  1.11000e+02
  1.12000e+02  1.13000e+02  1.14000e+02  1.15000e+02  1.16000e+02  1.17000e+02
  1.18000e+02  1.19000e+02  1.20000e+02  1.21000e+02  1.22000e+02  1.23000e+02
  1.24000e+02  1.25000e+02  1.26000e+02  1.27000e+02  1.28000e+02  1.29000e+02
  1.30000e+02  1.31000e+02  1.32000e+02  1.33000e+02  1.34000e+02  1.35000e+02
  1.36000e+02  1.37000e+02  1.38000e+02  1.39000e+02  1.40000e+02  1.41000e+02
  1.42000e+02  1.43000e+02  1.44000e+02  1.45000e+02  1.46000e+02  1.47000e+02
  1.48000e+02  1.49000e+02  1.50000e+02  1.51000e+02  1.52000e+02  1.53000e+02
  1.54000e+02  1.55000e+02  1.56000e+02  1.57000e+02  1.58000e+02  1.59000e+02
  1.60000e+02  1.61000e+02  1.62000e+02  1.63000e+02  1.64000e+02  1.65000e+02
  1.66000e+02  1.67000e+02  1.68000e+02  1.69000e+02  1.70000e+02  1.71000e+02
  1.72000e+02  1.73000e+02  1.74000e+02  1.75000e+02  1.76000e+02  1.77000e+02
  1.78000e+02  1.79000e+02  1.80000e+02  1.81000e+02  1.82000e+02  1.83000e+02
  1.84000e+02  1.85000e+02  1.86000e+02  1.87000e+02  1.88000e+02  1.89000e+02
  1.90000e+02  1.91000e+02  1.92000e+02  1.93000e+02  1.94000e+02  1.95000e+02
  1.96000e+02  1.97000e+02  1.98000e+02  1.99000e+02  2.00000e+02

# end
