# vtk DataFile Version 2.0
gauge_1
ASCII
DATASET POLYDATA
POINTS 7 double
0.02 0.201142 0.005
0.02 0.204333 0.005
0.02 0.207523 0.005
0.02 0.213904 0.005
0.02 0.226666 0.005
0.02 0.239428 0.005
0.02 0.25219 0.005
POINT_DATA 7
 FIELD attributes 1
alpha.water 1 7 float
-1.43413e-13 -2.64995e-13 -3.30589e-13 -3.73187e-13 -3.23257e-13 -2.79462e-13 -2.19883e-13
