# vtk DataFile Version 2.0
gauge_2
ASCII
DATASET POLYDATA
POINTS 53 double
0.2 0.0329993 0.005
0.2 0.0359992 0.005
0.2 0.0389992 0.005
0.2 0.0419991 0.005
0.2 0.044999 0.005
0.2 0.047999 0.005
0.2 0.0543799 0.005
0.2 0.0607609 0.005
0.2 0.0671419 0.005
0.2 0.0735228 0.005
0.2 0.0799038 0.005
0.2 0.0862847 0.005
0.2 0.0926657 0.005
0.2 0.0990467 0.005
0.2 0.105428 0.005
0.2 0.111809 0.005
0.2 0.11819 0.005
0.2 0.124571 0.005
0.2 0.130952 0.005
0.2 0.137332 0.005
0.2 0.150094 0.005
0.2 0.162856 0.005
0.2 0.175618 0.005
0.2 0.18838 0.005
0.2 0.201142 0.005
0.2 0.213904 0.005
0.2 0.226666 0.005
0.2 0.239428 0.005
0.2 0.25219 0.005
0.2 0.264952 0.005
0.2 0.277714 0.005
0.2 0.290476 0.005
0.2 0.303238 0.005
0.2 0.315999 0.005
0.2 0.328761 0.005
0.2 0.341523 0.005
0.2 0.354285 0.005
0.2 0.367047 0.005
0.2 0.379809 0.005
0.2 0.392571 0.005
0.2 0.405333 0.005
0.2 0.418095 0.005
0.2 0.430857 0.005
0.2 0.443619 0.005
0.2 0.456381 0.005
0.2 0.469143 0.005
0.2 0.481905 0.005
0.2 0.494666 0.005
0.2 0.507428 0.005
0.2 0.52019 0.005
0.2 0.532952 0.005
0.2 0.545714 0.005
0.2 0.558476 0.005
POINT_DATA 53
 FIELD attributes 1
alpha.water 1 53 float
0.999941 0.999966 0.999984 0.999994 0.999998 0.999999 0.999989 0.995719 0.96831 0.832475 0.538684 0.23392 0.0693018 0.0171627 0.00316514 0.000228124 4.66837e-05 1.47396e-05 2.33728e-06 1.11907e-06 1.72206e-08 5.06497e-10 -1.57832e-10 2.01754e-11 3.08326e-10 2.77729e-10 9.49808e-12 6.64762e-10 6.64552e-10 -1.0571e-15 -6.8741e-15 -1.14535e-14 -1.266e-14 -1.25618e-14 -8.75461e-15 -3.10782e-15 -5.65215e-16 -5.25456e-17 -2.49535e-18 -5.87657e-20 -8.0012e-22 -5.0724e-24 -4.11755e-29 3.64713e-36 2.10191e-39 2.34811e-42 2.32168e-45 3.3991e-49 1.23824e-52 7.87459e-56 4.91625e-61 4.97158e-65 2.30014e-70
