# vtk DataFile Version 2.0
gauge_2
ASCII
DATASET POLYDATA
POINTS 111 double
0.2 0.0314993 0.005
0.2 0.0329993 0.005
0.2 0.0344993 0.005
0.2 0.0359992 0.005
0.2 0.0374992 0.005
0.2 0.0389992 0.005
0.2 0.0404991 0.005
0.2 0.0419991 0.005
0.2 0.0434991 0.005
0.2 0.044999 0.005
0.2 0.046499 0.005
0.2 0.047999 0.005
0.2 0.0511894 0.005
0.2 0.0543799 0.005
0.2 0.0575704 0.005
0.2 0.0607609 0.005
0.2 0.0639514 0.005
0.2 0.0671419 0.005
0.2 0.0703323 0.005
0.2 0.0735228 0.005
0.2 0.0767133 0.005
0.2 0.0799038 0.005
0.2 0.0830943 0.005
0.2 0.0862847 0.005
0.2 0.0894752 0.005
0.2 0.0926657 0.005
0.2 0.0958562 0.005
0.2 0.0990467 0.005
0.2 0.102237 0.005
0.2 0.105428 0.005
0.2 0.111809 0.005
0.2 0.124571 0.005
0.2 0.137332 0.005
0.2 0.150094 0.005
0.2 0.162856 0.005
0.2 0.175618 0.005
0.2 0.18838 0.005
0.2 0.201142 0.005
0.2 0.213904 0.005
0.2 0.226666 0.005
0.2 0.239428 0.005
0.2 0.25219 0.005
0.2 0.264952 0.005
0.2 0.277714 0.005
0.2 0.290476 0.005
0.2 0.303238 0.005
0.2 0.315999 0.005
0.2 0.328761 0.005
0.2 0.335142 0.005
0.2 0.341523 0.005
0.2 0.344714 0.005
0.2 0.347904 0.005
0.2 0.351095 0.005
0.2 0.354285 0.005
0.2 0.357476 0.005
0.2 0.360666 0.005
0.2 0.363857 0.005
0.2 0.367047 0.005
0.2 0.370238 0.005
0.2 0.373428 0.005
0.2 0.376619 0.005
0.2 0.379809 0.005
0.2 0.383 0.005
0.2 0.38619 0.005
0.2 0.389381 0.005
0.2 0.392571 0.005
0.2 0.395762 0.005
0.2 0.398952 0.005
0.2 0.405333 0.005
0.2 0.411714 0.005
0.2 0.418095 0.005
0.2 0.421285 0.005
0.2 0.424476 0.005
0.2 0.427666 0.005
0.2 0.430857 0.005
0.2 0.434047 0.005
0.2 0.437238 0.005
0.2 0.440428 0.005
0.2 0.443619 0.005
0.2 0.446809 0.005
0.2 0.45 0.005
0.2 0.456381 0.005
0.2 0.459571 0.005
0.2 0.462762 0.005
0.2 0.465952 0.005
0.2 0.469143 0.005
0.2 0.472333 0.005
0.2 0.475524 0.005
0.2 0.478714 0.005
0.2 0.481905 0.005
0.2 0.485095 0.005
0.2 0.488286 0.005
0.2 0.491476 0.005
0.2 0.494666 0.005
0.2 0.497857 0.005
0.2 0.501047 0.005
0.2 0.504238 0.005
0.2 0.507428 0.005
0.2 0.510619 0.005
0.2 0.513809 0.005
0.2 0.517 0.005
0.2 0.52019 0.005
0.2 0.523381 0.005
0.2 0.526571 0.005
0.2 0.529762 0.005
0.2 0.532952 0.005
0.2 0.536143 0.005
0.2 0.539333 0.005
0.2 0.542524 0.005
0.2 0.545714 0.005
0.2 0.552095 0.005
POINT_DATA 111
 FIELD attributes 1
alpha.water 1 111 float
1 1 1 1 1 1 1 1 1 1 1 1 1 1 1 1 1 0.999995 0.999975 0.999934 0.999979 0.999748 0.99368 0.928367 0.899541 0.315339 0.0273631 1.36907e-11 1.90504e-10 3.2393e-10 4.41032e-10 4.45227e-10 3.91186e-10 3.84091e-10 2.73482e-10 8.15608e-11 1.11651e-13 6.60352e-14 3.79167e-16 9.89068e-18 1.07447e-19 4.65714e-19 6.16493e-17 2.80118e-15 3.16663e-14 1.37955e-12 6.12206e-11 4.32161e-09 2.68215e-07 4.76505e-05 0.00427045 0.00440252 0.00577542 0.00451024 0.00272603 0.00116765 0.00290703 0.00371081 0.00794851 0.00320425 0.00253416 0.00299742 0.00811212 0.00293531 0.00116819 4.23382e-05 -4.11106e-06 9.23044e-09 1.40463e-06 3.64675e-08 2.21265e-07 -0.000596788 0.000272842 0.000631687 0.000659554 0.000257833 0.000166215 5.69416e-05 2.53852e-06 -0.000615818 1.44533e-06 2.53688e-06 -0.000477749 9.39285e-05 0.000426497 0.000724104 -0.00178219 0.000536136 0.000277871 0.000108491 -7.94867e-05 0.00198962 0.00324193 0.00410389 0.00903378 0.00368377 0.0023186 0.00110022 -0.000847537 0.000620889 0.000703453 0.000605308 0.00121693 0.00216239 0.00283371 0.00198886 -0.00175538 5.63809e-06 -5.91608e-15 -3.36806e-17 -7.11509e-18
