scalar
part
         1
quad4
 5.86756e-07
 5.39573e-07
 4.93238e-07
 4.49393e-07
 4.08862e-07
 3.71947e-07
 3.38635e-07
 3.08743e-07
 2.82002e-07
 2.58111e-07
 2.36770e-07
 2.17693e-07
 2.00617e-07
 1.85306e-07
 1.71552e-07
 1.59170e-07
 1.47997e-07
 1.37894e-07
 1.28736e-07
 1.20416e-07
 6.94323e-07
 6.26133e-07
 5.62623e-07
 5.05007e-07
 4.53548e-07
 4.07998e-07
 3.67868e-07
 3.32582e-07
 3.01556e-07
 2.74248e-07
 2.50165e-07
 2.28876e-07
 2.10006e-07
 1.93233e-07
 1.78278e-07
 1.64905e-07
 1.52911e-07
 1.42122e-07
 1.32390e-07
 1.23587e-07
 8.21149e-07
 7.24474e-07
 6.38964e-07
 5.64534e-07
 5.00260e-07
 4.44926e-07
 3.97290e-07
 3.56210e-07
 3.20682e-07
 2.89846e-07
 2.62979e-07
 2.39476e-07
 2.18833e-07
 2.00628e-07
 1.84511e-07
 1.70187e-07
 1.57411e-07
 1.45975e-07
 1.35704e-07
 1.26450e-07
 9.67205e-07
 8.33164e-07
 7.20483e-07
 6.26289e-07
 5.47558e-07
 4.81554e-07
 4.25966e-07
 3.78894e-07
 3.38802e-07
 3.04455e-07
 2.74859e-07
 2.49216e-07
 2.26878e-07
 2.07320e-07
 1.90113e-07
 1.74906e-07
 1.61409e-07
 1.49380e-07
 1.38619e-07
 1.28957e-07
 1.12920e-06
 9.48489e-07
 8.03922e-07
 6.87669e-07
 5.93439e-07
 5.16371e-07
 4.52757e-07
 3.99776e-07
 3.55272e-07
 3.17585e-07
 2.85432e-07
 2.57806e-07
 2.33916e-07
 2.13132e-07
 1.94946e-07
 1.78952e-07
 1.64816e-07
 1.52266e-07
 1.41076e-07
 1.31060e-07
 1.29869e-06
 1.06372e-06
 8.84338e-07
 7.45138e-07
 6.35396e-07
 5.47591e-07
 4.76386e-07
 4.17933e-07
 3.69414e-07
 3.28736e-07
 2.94321e-07
 2.64965e-07
 2.39733e-07
 2.17897e-07
 1.98881e-07
 1.82224e-07
 1.67554e-07
 1.54570e-07
 1.43027e-07
 1.32719e-07
 1.46064e-06
 1.16898e-06
 9.55288e-07
 7.94469e-07
 6.70611e-07
 5.73306e-07
 4.95536e-07
 4.32439e-07
 3.80569e-07
 3.37430e-07
 3.01178e-07
 2.70431e-07
 2.44132e-07
 2.21469e-07
 2.01803e-07
 1.84632e-07
 1.69552e-07
 1.56238e-07
 1.44425e-07
 1.33898e-07
 1.59425e-06
 1.25224e-06
 1.00962e-06
 8.31267e-07
 6.96301e-07
 5.91701e-07
 5.08992e-07
 4.42466e-07
 3.88160e-07
 3.43257e-07
 3.05706e-07
 2.73987e-07
 2.46952e-07
 2.23724e-07
 2.03620e-07
 1.86106e-07
 1.70754e-07
 1.57224e-07
 1.45239e-07
 1.34572e-07
 1.67736e-06
 1.30188e-06
 1.04088e-06
 8.51748e-07
 7.10155e-07
 6.01314e-07
 5.15804e-07
 4.47375e-07
 3.91749e-07
 3.45911e-07
 3.07687e-07
 2.75476e-07
 2.48077e-07
 2.24577e-07
 2.04267e-07
 1.86596e-07
 1.71124e-07
 1.57501e-07
 1.45443e-07
 1.34720e-07
 1.69399e-06
 1.31006e-06
 1.04486e-06
 8.53540e-07
 7.10763e-07
 6.01275e-07
 5.15413e-07
 4.46802e-07
 3.91091e-07
 3.45223e-07
 3.07003e-07
 2.74814e-07
 2.47447e-07
 2.23983e-07
 2.03712e-07
 1.86078e-07
 1.70643e-07
 1.57054e-07
 1.45029e-07
 1.34335e-07
 1.64083e-06
 1.27521e-06
 1.02080e-06
 8.36231e-07
 6.97900e-07
 5.91456e-07
 5.07749e-07
 4.40706e-07
 3.86162e-07
 3.41182e-07
 3.03648e-07
 2.71999e-07
 2.45062e-07
 2.21944e-07
 2.01955e-07
 1.84554e-07
 1.69312e-07
 1.55886e-07
 1.43997e-07
 1.33420e-07
 1.52801e-06
 1.20245e-06
 9.71470e-07
 8.01442e-07
 6.72560e-07
 5.72496e-07
 4.93235e-07
 4.29376e-07
 3.77167e-07
 3.33935e-07
 2.97731e-07
 2.67111e-07
 2.40982e-07
 2.18507e-07
 1.99035e-07
 1.82054e-07
 1.67156e-07
 1.54014e-07
 1.42363e-07
 1.31985e-07
 1.37425e-06
 1.10159e-06
 9.02389e-07
 7.52432e-07
 6.36757e-07
 5.45686e-07
 4.72728e-07
 4.13398e-07
 3.64515e-07
 3.23772e-07
 2.89464e-07
 2.60309e-07
 2.35327e-07
 2.13763e-07
 1.95021e-07
 1.78631e-07
 1.64217e-07
 1.51475e-07
 1.40155e-07
 1.30055e-07
 1.20040e-06
 9.84318e-07
 8.20408e-07
 6.93394e-07
 5.93151e-07
 5.12766e-07
 4.47397e-07
 3.93577e-07
 3.48772e-07
 3.11101e-07
 2.79143e-07
 2.51811e-07
 2.28263e-07
 2.07838e-07
 1.90010e-07
 1.74363e-07
 1.60556e-07
 1.48315e-07
 1.37412e-07
 1.27660e-07
 1.02455e-06
 8.61599e-07
 7.32371e-07
 6.28710e-07
 5.44619e-07
 4.75671e-07
 4.18572e-07
 3.70844e-07
 3.30605e-07
 2.96406e-07
 2.67127e-07
 2.41887e-07
 2.19992e-07
 2.00887e-07
 1.84125e-07
 1.69344e-07
 1.56248e-07
 1.44594e-07
 1.34181e-07
 1.24840e-07
 8.59616e-07
 7.42126e-07
 6.44124e-07
 5.62348e-07
 4.93889e-07
 4.36304e-07
 3.87601e-07
 3.46170e-07
 3.10718e-07
 2.80208e-07
 2.53805e-07
 2.30831e-07
 2.10741e-07
 1.93086e-07
 1.77501e-07
 1.63682e-07
 1.51378e-07
 1.40382e-07
 1.30519e-07
 1.21640e-07
 7.12945e-07
 6.31709e-07
 5.60009e-07
 4.97489e-07
 4.43278e-07
 3.96357e-07
 3.55725e-07
 3.20472e-07
 2.89800e-07
 2.63026e-07
 2.39571e-07
 2.18947e-07
 2.00745e-07
 1.84620e-07
 1.70283e-07
 1.57492e-07
 1.46040e-07
 1.35754e-07
 1.26486e-07
 1.18109e-07
 5.87301e-07
 5.33450e-07
 4.82783e-07
 4.36385e-07
 3.94561e-07
 3.57203e-07
 3.24002e-07
 2.94563e-07
 2.68476e-07
 2.45343e-07
 2.24803e-07
 2.06529e-07
 1.90236e-07
 1.75672e-07
 1.62620e-07
 1.50894e-07
 1.40329e-07
 1.30787e-07
 1.22146e-07
 1.14301e-07
 4.82360e-07
 4.48352e-07
 4.13835e-07
 3.80411e-07
 3.48952e-07
 3.19862e-07
 2.93263e-07
 2.69113e-07
 2.47280e-07
 2.27587e-07
 2.09841e-07
 1.93851e-07
 1.79433e-07
 1.66419e-07
 1.54654e-07
 1.44003e-07
 1.34341e-07
 1.25560e-07
 1.17564e-07
 1.10268e-07
 3.96121e-07
 3.76031e-07
 3.53522e-07
 3.30217e-07
 3.07166e-07
 2.85010e-07
 2.64109e-07
 2.44636e-07
 2.26644e-07
 2.10114e-07
 1.94979e-07
 1.81152e-07
 1.68534e-07
 1.57023e-07
 1.46519e-07
 1.36930e-07
 1.28166e-07
 1.20148e-07
 1.12803e-07
 1.06065e-07
