scalar
part
         1
quad4
 4.23146e-07
 3.99103e-07
 3.73043e-07
 3.46640e-07
 3.20940e-07
 2.96546e-07
 2.73771e-07
 2.52737e-07
 2.33448e-07
 2.15839e-07
 1.99808e-07
 1.85235e-07
 1.71993e-07
 1.59960e-07
 1.49019e-07
 1.39061e-07
 1.29986e-07
 1.21704e-07
 1.14135e-07
 1.07206e-07
 5.12635e-07
 4.73538e-07
 4.34627e-07
 3.97506e-07
 3.62986e-07
 3.31387e-07
 3.02742e-07
 2.76928e-07
 2.53739e-07
 2.32941e-07
 2.14293e-07
 1.97562e-07
 1.82536e-07
 1.69018e-07
 1.56837e-07
 1.45838e-07
 1.35886e-07
 1.26861e-07
 1.18661e-07
 1.11192e-07
 6.20981e-07
 5.60602e-07
 5.04554e-07
 4.53813e-07
 4.08524e-07
 3.68417e-07
 3.33037e-07
 3.01870e-07
 2.74407e-07
 2.50175e-07
 2.28753e-07
 2.09768e-07
 1.92898e-07
 1.77864e-07
 1.64429e-07
 1.52386e-07
 1.41560e-07
 1.31802e-07
 1.22980e-07
 1.14985e-07
 7.49854e-07
 6.60351e-07
 5.82200e-07
 5.14713e-07
 4.56698e-07
 4.06863e-07
 3.63991e-07
 3.27008e-07
 2.94992e-07
 2.67166e-07
 2.42884e-07
 2.21604e-07
 2.02879e-07
 1.86335e-07
 1.71660e-07
 1.58594e-07
 1.46919e-07
 1.36450e-07
 1.27031e-07
 1.18531e-07
 8.98917e-07
 7.71261e-07
 6.65805e-07
 5.78583e-07
 5.06133e-07
 4.45604e-07
 3.94710e-07
 3.51635e-07
 3.14938e-07
 2.83476e-07
 2.56339e-07
 2.32796e-07
 2.12259e-07
 1.94253e-07
 1.78389e-07
 1.64349e-07
 1.51868e-07
 1.40730e-07
 1.30751e-07
 1.21780e-07
 1.06427e-06
 8.89480e-07
 7.52153e-07
 6.42899e-07
 5.54898e-07
 4.83180e-07
 4.24092e-07
 3.74916e-07
 3.33610e-07
 2.98618e-07
 2.68742e-07
 2.43051e-07
 2.20811e-07
 2.01441e-07
 1.84474e-07
 1.69535e-07
 1.56316e-07
 1.44567e-07
 1.34079e-07
 1.24681e-07
 1.23691e-06
 1.00830e-06
 8.36428e-07
 7.04243e-07
 6.00565e-07
 5.17851e-07
 4.50876e-07
 3.95930e-07
 3.50327e-07
 3.12083e-07
 2.79710e-07
 2.52076e-07
 2.28307e-07
 2.07720e-07
 1.89776e-07
 1.74043e-07
 1.60175e-07
 1.47890e-07
 1.36957e-07
 1.27187e-07
 1.40201e-06
 1.11820e-06
 9.12454e-07
 7.58530e-07
 6.40380e-07
 5.47728e-07
 4.73744e-07
 4.13739e-07
 3.64410e-07
 3.23373e-07
 2.88872e-07
 2.59593e-07
 2.34536e-07
 2.12928e-07
 1.94166e-07
 1.77772e-07
 1.63364e-07
 1.50636e-07
 1.39335e-07
 1.29257e-07
 1.54031e-06
 1.20794e-06
 9.73409e-07
 8.01483e-07
 6.71577e-07
 5.70972e-07
 4.91443e-07
 4.27472e-07
 3.75243e-07
 3.32042e-07
 2.95900e-07
 2.65357e-07
 2.39312e-07
 2.16923e-07
 1.97536e-07
 1.80637e-07
 1.65818e-07
 1.52750e-07
 1.41169e-07
 1.30856e-07
 1.63174e-06
 1.26658e-06
 1.01299e-06
 8.29296e-07
 6.91768e-07
 5.86032e-07
 5.02937e-07
 4.36419e-07
 3.82326e-07
 3.37735e-07
 3.00536e-07
 2.69176e-07
 2.42492e-07
 2.19596e-07
 1.99802e-07
 1.82573e-07
 1.67484e-07
 1.54193e-07
 1.42426e-07
 1.31958e-07
 1.66104e-06
 1.28618e-06
 1.02677e-06
 8.39353e-07
 6.99338e-07
 5.91875e-07
 5.07542e-07
 4.40113e-07
 3.85335e-07
 3.40218e-07
 3.02609e-07
 2.70926e-07
 2.43982e-07
 2.20875e-07
 2.00908e-07
 1.83536e-07
 1.68327e-07
 1.54936e-07
 1.43084e-07
 1.32543e-07
 1.62308e-06
 1.26411e-06
 1.01327e-06
 8.30787e-07
 6.93747e-07
 5.88149e-07
 5.05020e-07
 4.38390e-07
 3.84153e-07
 3.39408e-07
 3.02059e-07
 2.70559e-07
 2.43745e-07
 2.20732e-07
 2.00833e-07
 1.83509e-07
 1.68335e-07
 1.54969e-07
 1.43134e-07
 1.32606e-07
 1.52523e-06
 1.20399e-06
 9.74429e-07
 8.04681e-07
 6.75632e-07
 5.75242e-07
 4.95618e-07
 4.31409e-07
 3.78884e-07
 3.35375e-07
 2.98932e-07
 2.68108e-07
 2.41806e-07
 2.19184e-07
 1.99587e-07
 1.82501e-07
 1.67513e-07
 1.54296e-07
 1.42580e-07
 1.32148e-07
 1.38480e-06
 1.11465e-06
 9.15070e-07
 7.63827e-07
 6.46681e-07
 5.54215e-07
 4.80021e-07
 4.19627e-07
 3.69841e-07
 3.28335e-07
 2.93384e-07
 2.63686e-07
 2.38246e-07
 2.16291e-07
 1.97218e-07
 1.80545e-07
 1.65888e-07
 1.52937e-07
 1.41438e-07
 1.31182e-07
 1.22274e-06
 1.00746e-06
 8.41699e-07
 7.12118e-07
 6.09315e-07
 5.26622e-07
 4.59257e-07
 4.03740e-07
 3.57505e-07
 3.18630e-07
 2.85658e-07
 2.57470e-07
 2.33196e-07
 2.12153e-07
 1.93799e-07
 1.77700e-07
 1.63505e-07
 1.50928e-07
 1.39734e-07
 1.29730e-07
 1.05757e-06
 8.93458e-07
 7.61064e-07
 6.53795e-07
 5.66273e-07
 4.94278e-07
 4.34555e-07
 3.84598e-07
 3.42475e-07
 3.06688e-07
 2.76067e-07
 2.49691e-07
 2.26830e-07
 2.06900e-07
 1.89432e-07
 1.74044e-07
 1.60424e-07
 1.48316e-07
 1.37508e-07
 1.27822e-07
 9.02125e-07
 7.81375e-07
 6.79009e-07
 5.92784e-07
 5.20219e-07
 4.59018e-07
 4.07198e-07
 3.63112e-07
 3.25408e-07
 2.92989e-07
 2.64966e-07
 2.40615e-07
 2.19348e-07
 2.00686e-07
 1.84235e-07
 1.69669e-07
 1.56718e-07
 1.45160e-07
 1.34805e-07
 1.25496e-07
 7.63311e-07
 6.76953e-07
 5.99884e-07
 5.32265e-07
 4.73457e-07
 4.22507e-07
 3.78398e-07
 3.40170e-07
 3.06961e-07
 2.78024e-07
 2.52725e-07
 2.30523e-07
 2.10969e-07
 1.93680e-07
 1.78340e-07
 1.64678e-07
 1.52470e-07
 1.41524e-07
 1.31679e-07
 1.22795e-07
 6.43530e-07
 5.83215e-07
 5.26461e-07
 4.74523e-07
 4.27780e-07
 3.86126e-07
 3.49209e-07
 3.16575e-07
 2.87746e-07
 2.62263e-07
 2.39706e-07
 2.19698e-07
 2.01910e-07
 1.86054e-07
 1.71883e-07
 1.59182e-07
 1.47767e-07
 1.37481e-07
 1.28186e-07
 1.19766e-07
 5.42382e-07
 5.01167e-07
 4.60172e-07
 4.20983e-07
 3.84447e-07
 3.50924e-07
 3.20479e-07
 2.93004e-07
 2.68300e-07
 2.46130e-07
 2.26245e-07
 2.08405e-07
 1.92385e-07
 1.77978e-07
 1.65001e-07
 1.53289e-07
 1.42699e-07
 1.33102e-07
 1.24388e-07
 1.16457e-07
