scalar
part
         1
quad4
 5.40875e-07
 5.00714e-07
 4.60541e-07
 4.21975e-07
 3.85895e-07
 3.52696e-07
 3.22470e-07
 2.95132e-07
 2.70505e-07
 2.48367e-07
 2.28480e-07
 2.10614e-07
 1.94549e-07
 1.80087e-07
 1.67047e-07
 1.55268e-07
 1.44607e-07
 1.34939e-07
 1.26154e-07
 1.18154e-07
 6.43027e-07
 5.83815e-07
 5.27875e-07
 4.76511e-07
 4.30156e-07
 3.88745e-07
 3.51965e-07
 3.19389e-07
 2.90562e-07
 2.65043e-07
 2.42423e-07
 2.22334e-07
 2.04455e-07
 1.88501e-07
 1.74230e-07
 1.61429e-07
 1.49916e-07
 1.39533e-07
 1.30146e-07
 1.21636e-07
 7.64317e-07
 6.79042e-07
 6.02702e-07
 5.35540e-07
 4.76989e-07
 4.26152e-07
 3.82058e-07
 3.43776e-07
 3.10471e-07
 2.81411e-07
 2.55972e-07
 2.33625e-07
 2.13922e-07
 1.96488e-07
 1.81005e-07
 1.67207e-07
 1.54869e-07
 1.43800e-07
 1.33838e-07
 1.24845e-07
 9.05354e-07
 7.85528e-07
 6.83682e-07
 5.97691e-07
 5.25169e-07
 4.63885e-07
 4.11908e-07
 3.67620e-07
 3.29693e-07
 2.97044e-07
 2.68790e-07
 2.44216e-07
 2.22737e-07
 2.03874e-07
 1.87233e-07
 1.72491e-07
 1.59376e-07
 1.47665e-07
 1.37168e-07
 1.27728e-07
 1.06402e-06
 9.00422e-07
 7.68139e-07
 6.60730e-07
 5.72924e-07
 5.00571e-07
 4.40461e-07
 3.90113e-07
 3.47611e-07
 3.11464e-07
 2.80507e-07
 2.53821e-07
 2.30674e-07
 2.10482e-07
 1.92774e-07
 1.77166e-07
 1.63346e-07
 1.51054e-07
 1.40077e-07
 1.30237e-07
 1.23372e-06
 1.01815e-06
 8.51802e-07
 7.21504e-07
 6.17954e-07
 5.34536e-07
 4.66492e-07
 4.10352e-07
 3.63553e-07
 3.24171e-07
 2.90744e-07
 2.62148e-07
 2.37509e-07
 2.16139e-07
 1.97491e-07
 1.81127e-07
 1.66693e-07
 1.53900e-07
 1.42510e-07
 1.32328e-07
 1.40199e-06
 1.13012e-06
 9.28853e-07
 7.76074e-07
 6.57567e-07
 5.63913e-07
 4.88689e-07
 4.27403e-07
 3.76844e-07
 3.34667e-07
 2.99131e-07
 2.68922e-07
 2.43032e-07
 2.20682e-07
 2.01258e-07
 1.84274e-07
 1.69340e-07
 1.56140e-07
 1.44417e-07
 1.33960e-07
 1.55048e-06
 1.22526e-06
 9.92470e-07
 8.20117e-07
 6.88952e-07
 5.86830e-07
 5.05778e-07
 4.40380e-07
 3.86856e-07
 3.42502e-07
 3.05340e-07
 2.73897e-07
 2.47061e-07
 2.23973e-07
 2.03970e-07
 1.86526e-07
 1.71222e-07
 1.57724e-07
 1.45758e-07
 1.35101e-07
 1.65796e-06
 1.29191e-06
 1.03592e-06
 8.49570e-07
 7.09566e-07
 6.01646e-07
 5.16668e-07
 4.48540e-07
 3.93075e-07
 3.47311e-07
 3.09106e-07
 2.76882e-07
 2.49450e-07
 2.25905e-07
 2.05544e-07
 1.87818e-07
 1.72290e-07
 1.58613e-07
 1.46502e-07
 1.35727e-07
 1.70610e-06
 1.32063e-06
 1.05397e-06
 8.61389e-07
 7.17555e-07
 6.07189e-07
 5.20596e-07
 4.51374e-07
 3.95149e-07
 3.48848e-07
 3.10257e-07
 2.77750e-07
 2.50109e-07
 2.26406e-07
 2.05927e-07
 1.88110e-07
 1.72514e-07
 1.58782e-07
 1.46629e-07
 1.35822e-07
 1.68579e-06
 1.30687e-06
 1.04420e-06
 8.54193e-07
 7.12099e-07
 6.02952e-07
 5.17239e-07
 4.48669e-07
 3.92937e-07
 3.47016e-07
 3.08722e-07
 2.76452e-07
 2.49001e-07
 2.25453e-07
 2.05101e-07
 1.87390e-07
 1.71881e-07
 1.58224e-07
 1.46134e-07
 1.35381e-07
 1.60039e-06
 1.25238e-06
 1.00759e-06
 8.28571e-07
 6.93569e-07
 5.89179e-07
 5.06763e-07
 4.40541e-07
 3.86522e-07
 3.41875e-07
 3.04548e-07
 2.73022e-07
 2.46153e-07
 2.23065e-07
 2.03082e-07
 1.85669e-07
 1.70404e-07
 1.56947e-07
 1.45024e-07
 1.34410e-07
 1.46420e-06
 1.16458e-06
 9.48259e-07
 7.86952e-07
 6.63460e-07
 5.66826e-07
 4.89799e-07
 4.27419e-07
 3.76201e-07
 3.33638e-07
 2.97889e-07
 2.67574e-07
 2.41650e-07
 2.19308e-07
 1.99919e-07
 1.82986e-07
 1.68112e-07
 1.54976e-07
 1.43319e-07
 1.32926e-07
 1.29751e-06
 1.05439e-06
 8.72467e-07
 7.33088e-07
 6.24115e-07
 5.37409e-07
 4.67356e-07
 4.09993e-07
 3.62459e-07
 3.22650e-07
 2.88994e-07
 2.60294e-07
 2.35631e-07
 2.14286e-07
 1.95694e-07
 1.79405e-07
 1.65055e-07
 1.52349e-07
 1.41048e-07
 1.30953e-07
 1.12064e-06
 9.33497e-07
 7.87210e-07
 6.71331e-07
 5.78333e-07
 5.02777e-07
 4.40689e-07
 3.89132e-07
 3.45909e-07
 3.09354e-07
 2.78188e-07
 2.51422e-07
 2.28277e-07
 2.08139e-07
 1.90515e-07
 1.75009e-07
 1.61298e-07
 1.49120e-07
 1.38256e-07
 1.28526e-07
 9.49631e-07
 8.12029e-07
 6.98984e-07
 6.05930e-07
 5.28952e-07
 4.64865e-07
 4.11141e-07
 3.65788e-07
 3.27237e-07
 2.94249e-07
 2.65844e-07
 2.41237e-07
 2.19801e-07
 2.01029e-07
 1.84507e-07
 1.69897e-07
 1.56922e-07
 1.45351e-07
 1.34992e-07
 1.25685e-07
 7.94513e-07
 6.97292e-07
 6.12946e-07
 5.40505e-07
 4.78520e-07
 4.25486e-07
 3.80017e-07
 3.40909e-07
 3.07140e-07
 2.77856e-07
 2.52351e-07
 2.30037e-07
 2.10433e-07
 1.93135e-07
 1.77810e-07
 1.64180e-07
 1.52013e-07
 1.41113e-07
 1.31314e-07
 1.22477e-07
 6.59814e-07
 5.93587e-07
 5.32613e-07
 4.77774e-07
 4.29093e-07
 3.86179e-07
 3.48471e-07
 3.15364e-07
 2.86276e-07
 2.60677e-07
 2.38095e-07
 2.18121e-07
 2.00404e-07
 1.84639e-07
 1.70570e-07
 1.57975e-07
 1.46665e-07
 1.36481e-07
 1.27283e-07
 1.18953e-07
 5.46194e-07
 5.02728e-07
 4.59966e-07
 4.19519e-07
 3.82157e-07
 3.48143e-07
 3.17449e-07
 2.89896e-07
 2.65228e-07
 2.43167e-07
 2.23436e-07
 2.05773e-07
 1.89940e-07
 1.75723e-07
 1.62931e-07
 1.51397e-07
 1.40973e-07
 1.31533e-07
 1.22963e-07
 1.15165e-07
 4.52099e-07
 4.24811e-07
 3.95773e-07
 3.66705e-07
 3.38657e-07
 3.12217e-07
 2.87667e-07
 2.65097e-07
 2.44479e-07
 2.25720e-07
 2.08691e-07
 1.93250e-07
 1.79251e-07
 1.66556e-07
 1.55032e-07
 1.44560e-07
 1.35030e-07
 1.26345e-07
 1.18417e-07
 1.11167e-07
