# vtk DataFile Version 2.0
gauge_2
ASCII
DATASET POLYDATA
POINTS 68 double
0.2 0.0314993 0.005
0.2 0.0329993 0.005
0.2 0.0344993 0.005
0.2 0.0359992 0.005
0.2 0.0374992 0.005
0.2 0.0389992 0.005
0.2 0.0404991 0.005
0.2 0.0419991 0.005
0.2 0.0434991 0.005
0.2 0.044999 0.005
0.2 0.046499 0.005
0.2 0.047999 0.005
0.2 0.0511894 0.005
0.2 0.0543799 0.005
0.2 0.0575704 0.005
0.2 0.0607609 0.005
0.2 0.0639514 0.005
0.2 0.0671419 0.005
0.2 0.0703323 0.005
0.2 0.0735228 0.005
0.2 0.0767133 0.005
0.2 0.0799038 0.005
0.2 0.0830943 0.005
0.2 0.0862847 0.005
0.2 0.0894752 0.005
0.2 0.0926657 0.005
0.2 0.0958562 0.005
0.2 0.0990467 0.005
0.2 0.102237 0.005
0.2 0.105428 0.005
0.2 0.111809 0.005
0.2 0.11819 0.005
0.2 0.124571 0.005
0.2 0.130952 0.005
0.2 0.137332 0.005
0.2 0.150094 0.005
0.2 0.162856 0.005
0.2 0.175618 0.005
0.2 0.18838 0.005
0.2 0.201142 0.005
0.2 0.213904 0.005
0.2 0.226666 0.005
0.2 0.239428 0.005
0.2 0.25219 0.005
0.2 0.264952 0.005
0.2 0.277714 0.005
0.2 0.290476 0.005
0.2 0.303238 0.005
0.2 0.315999 0.005
0.2 0.328761 0.005
0.2 0.341523 0.005
0.2 0.354285 0.005
0.2 0.367047 0.005
0.2 0.379809 0.005
0.2 0.392571 0.005
0.2 0.405333 0.005
0.2 0.418095 0.005
0.2 0.430857 0.005
0.2 0.443619 0.005
0.2 0.456381 0.005
0.2 0.469143 0.005
0.2 0.481905 0.005
0.2 0.494666 0.005
0.2 0.507428 0.005
0.2 0.52019 0.005
0.2 0.532952 0.005
0.2 0.545714 0.005
0.2 0.558476 0.005
POINT_DATA 68
 FIELD attributes 1
alpha.water 1 68 float
1 0.999999 0.999999 0.999999 1 1 1 1 1 1 1 1 1 1 1 1 1 1 0.993219 0.963265 1.13539 0.748422 0.531945 0.310093 0.0791325 0.0347905 0.00308612 0.000110773 1.21777e-05 6.61453e-06 1.507e-06 1.13358e-07 2.42712e-08 1.15858e-09 1.47883e-10 3.51867e-10 4.25053e-10 7.45589e-11 2.13261e-12 9.84572e-13 7.80872e-13 1.03659e-12 7.26719e-13 1.58196e-13 1.34389e-14 2.41533e-15 9.81248e-16 3.01441e-16 3.50697e-17 7.81537e-19 6.11153e-21 1.10989e-22 8.42189e-25 1.32041e-27 2.9133e-30 2.31407e-32 4.50488e-35 2.986e-38 1.26863e-42 3.29202e-47 5.0007e-51 2.21927e-55 4.33373e-59 5.40803e-64 1.11796e-67 7.26472e-72 1.48226e-77 6.17534e-83
