scalar
part
         1
quad4
 6.00905e-07
 5.51894e-07
 5.03932e-07
 4.58665e-07
 4.16909e-07
 3.78945e-07
 3.44740e-07
 3.14088e-07
 2.86700e-07
 2.62258e-07
 2.40445e-07
 2.20963e-07
 2.03538e-07
 1.87927e-07
 1.73912e-07
 1.61302e-07
 1.49931e-07
 1.39653e-07
 1.30341e-07
 1.21886e-07
 7.10295e-07
 6.39755e-07
 5.74227e-07
 5.14904e-07
 4.62015e-07
 4.15272e-07
 3.74147e-07
 3.38029e-07
 3.06307e-07
 2.78412e-07
 2.53834e-07
 2.32126e-07
 2.12897e-07
 1.95816e-07
 1.80597e-07
 1.66994e-07
 1.54801e-07
 1.43839e-07
 1.33954e-07
 1.25017e-07
 8.39092e-07
 7.39416e-07
 6.51431e-07
 5.74980e-07
 5.09064e-07
 4.52394e-07
 4.03668e-07
 3.61694e-07
 3.25428e-07
 2.93980e-07
 2.66603e-07
 2.42671e-07
 2.21665e-07
 2.03151e-07
 1.86769e-07
 1.72217e-07
 1.59244e-07
 1.47637e-07
 1.37216e-07
 1.27830e-07
 9.87166e-07
 8.49341e-07
 7.33679e-07
 6.37143e-07
 5.56566e-07
 4.89101e-07
 4.32345e-07
 3.84332e-07
 3.43477e-07
 3.08504e-07
 2.78392e-07
 2.52318e-07
 2.29618e-07
 2.09755e-07
 1.92288e-07
 1.76858e-07
 1.63169e-07
 1.50973e-07
 1.40067e-07
 1.30278e-07
 1.15102e-06
 9.65653e-07
 8.17596e-07
 6.98707e-07
 6.02466e-07
 5.23845e-07
 4.59017e-07
 4.05074e-07
 3.59799e-07
 3.21488e-07
 2.88824e-07
 2.60776e-07
 2.36534e-07
 2.15453e-07
 1.97016e-07
 1.80808e-07
 1.66488e-07
 1.53779e-07
 1.42451e-07
 1.32313e-07
 1.32185e-06
 1.08139e-06
 8.98094e-07
 7.56051e-07
 6.44203e-07
 5.54811e-07
 4.82386e-07
 4.22981e-07
 3.73709e-07
 3.32427e-07
 2.97521e-07
 2.67760e-07
 2.42194e-07
 2.20078e-07
 2.00825e-07
 1.83965e-07
 1.69123e-07
 1.55990e-07
 1.44317e-07
 1.33896e-07
 1.48415e-06
 1.18640e-06
 9.68581e-07
 8.04864e-07
 6.78916e-07
 5.80065e-07
 5.01124e-07
 4.37125e-07
 3.84547e-07
 3.40843e-07
 3.04134e-07
 2.73013e-07
 2.46405e-07
 2.23483e-07
 2.03600e-07
 1.86243e-07
 1.71003e-07
 1.57552e-07
 1.45621e-07
 1.34990e-07
 1.61656e-06
 1.26841e-06
 1.02179e-06
 8.40702e-07
 7.03801e-07
 5.97787e-07
 5.14018e-07
 4.46678e-07
 3.91737e-07
 3.46329e-07
 3.08370e-07
 2.76318e-07
 2.49007e-07
 2.25548e-07
 2.05250e-07
 1.87570e-07
 1.72077e-07
 1.58424e-07
 1.46332e-07
 1.35572e-07
 1.69654e-06
 1.31569e-06
 1.05124e-06
 8.59788e-07
 7.16561e-07
 6.06531e-07
 5.20128e-07
 4.51015e-07
 3.94853e-07
 3.48588e-07
 3.10018e-07
 2.77523e-07
 2.49889e-07
 2.26191e-07
 2.05715e-07
 1.87901e-07
 1.72306e-07
 1.58577e-07
 1.46426e-07
 1.35622e-07
 1.70827e-06
 1.32051e-06
 1.05284e-06
 8.59829e-07
 7.15845e-07
 6.05466e-07
 5.18928e-07
 4.49791e-07
 3.93664e-07
 3.47462e-07
 3.08968e-07
 2.76552e-07
 2.48996e-07
 2.25372e-07
 2.04964e-07
 1.87213e-07
 1.71676e-07
 1.57999e-07
 1.45895e-07
 1.35133e-07
 1.64917e-06
 1.28175e-06
 1.02606e-06
 8.40557e-07
 7.01517e-07
 5.94525e-07
 5.10386e-07
 4.42995e-07
 3.88168e-07
 3.42955e-07
 3.05225e-07
 2.73411e-07
 2.46334e-07
 2.23096e-07
 2.03003e-07
 1.85512e-07
 1.70190e-07
 1.56694e-07
 1.44743e-07
 1.34111e-07
 1.53049e-06
 1.20507e-06
 9.73991e-07
 8.03775e-07
 6.74685e-07
 5.74419e-07
 4.94973e-07
 4.30948e-07
 3.78592e-07
 3.35229e-07
 2.98911e-07
 2.68190e-07
 2.41971e-07
 2.19417e-07
 1.99874e-07
 1.82830e-07
 1.67875e-07
 1.54683e-07
 1.42986e-07
 1.32567e-07
 1.37189e-06
 1.10079e-06
 9.02421e-07
 7.52910e-07
 6.37468e-07
 5.46509e-07
 4.73595e-07
 4.14269e-07
 3.65368e-07
 3.24594e-07
 2.90249e-07
 2.61054e-07
 2.36033e-07
 2.14430e-07
 1.95650e-07
 1.79225e-07
 1.64777e-07
 1.52003e-07
 1.40654e-07
 1.30527e-07
 1.19461e-06
 9.80868e-07
 8.18395e-07
 6.92281e-07
 5.92609e-07
 5.12590e-07
 4.47458e-07
 3.93790e-07
 3.49082e-07
 3.11471e-07
 2.79548e-07
 2.52235e-07
 2.28693e-07
 2.08267e-07
 1.90434e-07
 1.74777e-07
 1.60959e-07
 1.48704e-07
 1.37788e-07
 1.28023e-07
 1.01670e-06
 8.56330e-07
 7.28828e-07
 6.26332e-07
 5.43036e-07
 4.74639e-07
 4.17924e-07
 3.70467e-07
 3.30419e-07
 2.96358e-07
 2.67176e-07
 2.42006e-07
 2.20160e-07
 2.01089e-07
 1.84350e-07
 1.69584e-07
 1.56497e-07
 1.44848e-07
 1.34437e-07
 1.25095e-07
 8.50764e-07
 7.35766e-07
 6.39543e-07
 5.59039e-07
 4.91495e-07
 4.34573e-07
 3.86355e-07
 3.45281e-07
 3.10095e-07
 2.79784e-07
 2.53529e-07
 2.30669e-07
 2.10664e-07
 1.93075e-07
 1.77538e-07
 1.63756e-07
 1.51481e-07
 1.40506e-07
 1.30658e-07
 1.21791e-07
 7.03824e-07
 6.24818e-07
 5.54803e-07
 4.93549e-07
 4.40290e-07
 3.94087e-07
 3.53998e-07
 3.19158e-07
 2.88803e-07
 2.62273e-07
 2.39008e-07
 2.18532e-07
 2.00445e-07
 1.84411e-07
 1.70146e-07
 1.57412e-07
 1.46005e-07
 1.35754e-07
 1.26514e-07
 1.18160e-07
 5.78358e-07
 5.26422e-07
 4.77273e-07
 4.32066e-07
 3.91172e-07
 3.54540e-07
 3.21905e-07
 2.92909e-07
 2.67170e-07
 2.44313e-07
 2.23991e-07
 2.05891e-07
 1.89737e-07
 1.75285e-07
 1.62324e-07
 1.50671e-07
 1.40166e-07
 1.30672e-07
 1.22070e-07
 1.14258e-07
 4.73845e-07
 4.41441e-07
 4.08250e-07
 3.75908e-07
 3.45321e-07
 3.16932e-07
 2.90896e-07
 2.67198e-07
 2.45728e-07
 2.26328e-07
 2.08819e-07
 1.93021e-07
 1.78760e-07
 1.65874e-07
 1.54215e-07
 1.43650e-07
 1.34059e-07
 1.25338e-07
 1.17391e-07
 1.10137e-07
 3.88153e-07
 3.69391e-07
 3.48020e-07
 3.25672e-07
 3.03418e-07
 2.81920e-07
 2.61560e-07
 2.42531e-07
 2.24904e-07
 2.08673e-07
 1.93786e-07
 1.80162e-07
 1.67712e-07
 1.56341e-07
 1.45954e-07
 1.36461e-07
 1.27778e-07
 1.19829e-07
 1.12541e-07
 1.05852e-07
