scalar
part
         1
quad4
 6.47333e-07
 5.92565e-07
 5.39472e-07
 4.89703e-07
 4.44035e-07
 4.02696e-07
 3.65588e-07
 3.32443e-07
 3.02914e-07
 2.76632e-07
 2.53234e-07
 2.32382e-07
 2.13772e-07
 1.97129e-07
 1.82215e-07
 1.68819e-07
 1.56758e-07
 1.45872e-07
 1.36023e-07
 1.27091e-07
 7.61648e-07
 6.83965e-07
 6.12256e-07
 5.47650e-07
 4.90280e-07
 4.39750e-07
 3.95429e-07
 3.56610e-07
 3.22602e-07
 2.92767e-07
 2.66536e-07
 2.43414e-07
 2.22971e-07
 2.04843e-07
 1.88716e-07
 1.74325e-07
 1.61443e-07
 1.49876e-07
 1.39460e-07
 1.30053e-07
 8.95582e-07
 7.87098e-07
 6.91737e-07
 6.09163e-07
 5.38183e-07
 4.77328e-07
 4.25137e-07
 3.80284e-07
 3.41616e-07
 3.08155e-07
 2.79080e-07
 2.53710e-07
 2.31479e-07
 2.11916e-07
 1.94632e-07
 1.79300e-07
 1.65648e-07
 1.53448e-07
 1.42508e-07
 1.32665e-07
 1.04871e-06
 9.00156e-07
 7.75826e-07
 6.72316e-07
 5.86125e-07
 5.14125e-07
 4.53686e-07
 4.02666e-07
 3.59335e-07
 3.22312e-07
 2.90490e-07
 2.62980e-07
 2.39066e-07
 2.18169e-07
 1.99819e-07
 1.83628e-07
 1.69280e-07
 1.56512e-07
 1.45105e-07
 1.34876e-07
 1.21706e-06
 1.01886e-06
 8.60847e-07
 7.34209e-07
 6.31901e-07
 5.48491e-07
 4.79848e-07
 4.22839e-07
 3.75074e-07
 3.34724e-07
 3.00375e-07
 2.70923e-07
 2.45501e-07
 2.23423e-07
 2.04137e-07
 1.87201e-07
 1.72253e-07
 1.58999e-07
 1.47196e-07
 1.36642e-07
 1.39106e-06
 1.13571e-06
 9.41344e-07
 7.90979e-07
 6.72796e-07
 5.78514e-07
 5.02264e-07
 4.39829e-07
 3.88126e-07
 3.44871e-07
 3.08349e-07
 2.77251e-07
 2.50567e-07
 2.27510e-07
 2.07459e-07
 1.89917e-07
 1.74488e-07
 1.60847e-07
 1.48732e-07
 1.37924e-07
 1.55413e-06
 1.23988e-06
 1.01032e-06
 8.38083e-07
 7.05815e-07
 6.02184e-07
 5.19564e-07
 4.52684e-07
 3.97819e-07
 3.52273e-07
 3.14065e-07
 2.81707e-07
 2.54072e-07
 2.30287e-07
 2.09673e-07
 1.91693e-07
 1.75918e-07
 1.62004e-07
 1.49671e-07
 1.38688e-07
 1.68357e-06
 1.31839e-06
 1.06016e-06
 8.70901e-07
 7.28071e-07
 6.17647e-07
 5.30522e-07
 4.60580e-07
 4.03585e-07
 3.56531e-07
 3.17236e-07
 2.84086e-07
 2.55863e-07
 2.31640e-07
 2.10695e-07
 1.92463e-07
 1.76496e-07
 1.62433e-07
 1.49984e-07
 1.38911e-07
 1.75559e-06
 1.35900e-06
 1.08419e-06
 8.85601e-07
 7.37271e-07
 6.23478e-07
 5.34229e-07
 4.62916e-07
 4.05021e-07
 3.57367e-07
 3.17670e-07
 2.84248e-07
 2.55843e-07
 2.31497e-07
 2.10472e-07
 1.92188e-07
 1.76190e-07
 1.62110e-07
 1.49654e-07
 1.38581e-07
 1.75384e-06
 1.35398e-06
 1.07844e-06
 8.80029e-07
 7.32180e-07
 6.18943e-07
 5.30232e-07
 4.59407e-07
 4.01941e-07
 3.54661e-07
 3.15285e-07
 2.82140e-07
 2.53973e-07
 2.29833e-07
 2.08985e-07
 1.90856e-07
 1.74991e-07
 1.61029e-07
 1.48676e-07
 1.37693e-07
 1.67688e-06
 1.30299e-06
 1.04290e-06
 8.54261e-07
 7.12898e-07
 6.04137e-07
 5.18616e-07
 4.50124e-07
 3.94406e-07
 3.48460e-07
 3.10121e-07
 2.77794e-07
 2.50281e-07
 2.26669e-07
 2.06254e-07
 1.88482e-07
 1.72915e-07
 1.59202e-07
 1.47060e-07
 1.36257e-07
 1.53875e-06
 1.21316e-06
 9.81501e-07
 8.10609e-07
 6.80858e-07
 5.79985e-07
 4.99998e-07
 4.35494e-07
 3.82716e-07
 3.38983e-07
 3.02340e-07
 2.71331e-07
 2.44858e-07
 2.22078e-07
 2.02334e-07
 1.85110e-07
 1.69995e-07
 1.56657e-07
 1.44829e-07
 1.34292e-07
 1.36237e-06
 1.09649e-06
 9.00975e-07
 7.53066e-07
 6.38532e-07
 5.48082e-07
 4.75439e-07
 4.16242e-07
 3.67382e-07
 3.26596e-07
 2.92207e-07
 2.62950e-07
 2.37856e-07
 2.16174e-07
 1.97315e-07
 1.80811e-07
 1.66287e-07
 1.53439e-07
 1.42020e-07
 1.31826e-07
 1.17122e-06
 9.66242e-07
 8.09148e-07
 6.86440e-07
 5.88983e-07
 5.10436e-07
 4.46297e-07
 3.93307e-07
 3.49066e-07
 3.11777e-07
 2.80075e-07
 2.52912e-07
 2.29471e-07
 2.09108e-07
 1.91314e-07
 1.75676e-07
 1.61864e-07
 1.49606e-07
 1.38679e-07
 1.28899e-07
 9.84019e-07
 8.34050e-07
 7.13393e-07
 6.15502e-07
 5.35370e-07
 4.69187e-07
 4.14049e-07
 3.67731e-07
 3.28516e-07
 2.95070e-07
 2.66347e-07
 2.41521e-07
 2.19935e-07
 2.01060e-07
 1.84469e-07
 1.69815e-07
 1.56813e-07
 1.45228e-07
 1.34862e-07
 1.25555e-07
 8.12915e-07
 7.08488e-07
 6.19648e-07
 5.44364e-07
 4.80559e-07
 4.26356e-07
 3.80139e-07
 3.40558e-07
 3.06498e-07
 2.77045e-07
 2.51450e-07
 2.29102e-07
 2.09497e-07
 1.92222e-07
 1.76934e-07
 1.63349e-07
 1.51231e-07
 1.40381e-07
 1.30633e-07
 1.21846e-07
 6.63951e-07
 5.94799e-07
 5.32040e-07
 4.76148e-07
 4.26880e-07
 3.83671e-07
 3.45853e-07
 3.12750e-07
 2.83736e-07
 2.58252e-07
 2.35807e-07
 2.15981e-07
 1.98413e-07
 1.82795e-07
 1.68866e-07
 1.56403e-07
 1.45218e-07
 1.35149e-07
 1.26059e-07
 1.17828e-07
 5.38598e-07
 4.95381e-07
 4.52961e-07
 4.12932e-07
 3.76026e-07
 3.42480e-07
 3.12245e-07
 2.85129e-07
 2.60872e-07
 2.39192e-07
 2.19810e-07
 2.02468e-07
 1.86927e-07
 1.72974e-07
 1.60422e-07
 1.49105e-07
 1.38879e-07
 1.29617e-07
 1.21208e-07
 1.13557e-07
 4.35511e-07
 4.10580e-07
 3.83401e-07
 3.55855e-07
 3.29083e-07
 3.03729e-07
 2.80113e-07
 2.58351e-07
 2.38437e-07
 2.20294e-07
 2.03807e-07
 1.88842e-07
 1.75266e-07
 1.62944e-07
 1.51753e-07
 1.41578e-07
 1.32313e-07
 1.23866e-07
 1.16150e-07
 1.09091e-07
 3.51964e-07
 3.39487e-07
 3.23357e-07
 3.05331e-07
 2.86615e-07
 2.68005e-07
 2.50001e-07
 2.32897e-07
 2.16845e-07
 2.01908e-07
 1.88086e-07
 1.75346e-07
 1.63629e-07
 1.52870e-07
 1.42996e-07
 1.33934e-07
 1.25616e-07
 1.17976e-07
 1.10951e-07
 1.04487e-07
