# vtk DataFile Version 2.0
gauge_2
ASCII
DATASET POLYDATA
POINTS 110 double
0.2 0.0314993 0.005
0.2 0.0329993 0.005
0.2 0.0344993 0.005
0.2 0.0359992 0.005
0.2 0.0374992 0.005
0.2 0.0389992 0.005
0.2 0.0404991 0.005
0.2 0.0419991 0.005
0.2 0.0434991 0.005
0.2 0.044999 0.005
0.2 0.046499 0.005
0.2 0.047999 0.005
0.2 0.0511894 0.005
0.2 0.0543799 0.005
0.2 0.0575704 0.005
0.2 0.0607609 0.005
0.2 0.0639514 0.005
0.2 0.0671419 0.005
0.2 0.0703323 0.005
0.2 0.0735228 0.005
0.2 0.0767133 0.005
0.2 0.0799038 0.005
0.2 0.0830943 0.005
0.2 0.0862847 0.005
0.2 0.0894752 0.005
0.2 0.0926657 0.005
0.2 0.0990467 0.005
0.2 0.105428 0.005
0.2 0.111809 0.005
0.2 0.124571 0.005
0.2 0.137332 0.005
0.2 0.150094 0.005
0.2 0.162856 0.005
0.2 0.175618 0.005
0.2 0.18838 0.005
0.2 0.201142 0.005
0.2 0.213904 0.005
0.2 0.226666 0.005
0.2 0.233047 0.005
0.2 0.239428 0.005
0.2 0.242618 0.005
0.2 0.245809 0.005
0.2 0.248999 0.005
0.2 0.25219 0.005
0.2 0.25538 0.005
0.2 0.258571 0.005
0.2 0.261761 0.005
0.2 0.264952 0.005
0.2 0.268142 0.005
0.2 0.271333 0.005
0.2 0.277714 0.005
0.2 0.290476 0.005
0.2 0.303238 0.005
0.2 0.315999 0.005
0.2 0.328761 0.005
0.2 0.335142 0.005
0.2 0.341523 0.005
0.2 0.347904 0.005
0.2 0.354285 0.005
0.2 0.360666 0.005
0.2 0.367047 0.005
0.2 0.370238 0.005
0.2 0.373428 0.005
0.2 0.376619 0.005
0.2 0.379809 0.005
0.2 0.383 0.005
0.2 0.38619 0.005
0.2 0.389381 0.005
0.2 0.392571 0.005
0.2 0.395762 0.005
0.2 0.398952 0.005
0.2 0.402142 0.005
0.2 0.405333 0.005
0.2 0.408523 0.005
0.2 0.411714 0.005
0.2 0.414904 0.005
0.2 0.418095 0.005
0.2 0.421285 0.005
0.2 0.424476 0.005
0.2 0.427666 0.005
0.2 0.430857 0.005
0.2 0.437238 0.005
0.2 0.443619 0.005
0.2 0.446809 0.005
0.2 0.45 0.005
0.2 0.45319 0.005
0.2 0.456381 0.005
0.2 0.459571 0.005
0.2 0.462762 0.005
0.2 0.465952 0.005
0.2 0.469143 0.005
0.2 0.472333 0.005
0.2 0.475524 0.005
0.2 0.478714 0.005
0.2 0.481905 0.005
0.2 0.485095 0.005
0.2 0.488286 0.005
0.2 0.491476 0.005
0.2 0.494666 0.005
0.2 0.497857 0.005
0.2 0.501047 0.005
0.2 0.504238 0.005
0.2 0.507428 0.005
0.2 0.510619 0.005
0.2 0.513809 0.005
0.2 0.52019 0.005
0.2 0.526571 0.005
0.2 0.532952 0.005
0.2 0.545714 0.005
0.2 0.558476 0.005
POINT_DATA 110
 FIELD attributes 1
alpha.water 1 110 float
1 1 1 1 1 1 1 1 1 1 1 1 1 1 1 0.999998 1 0.999977 0.999949 0.999212 0.999997 0.844659 0.474036 0.102774 3.49155e-12 3.56912e-11 2.89407e-10 4.20361e-10 4.10413e-10 2.87681e-10 1.58315e-10 5.98139e-11 1.18707e-11 7.7938e-13 1.00964e-14 -3.94003e-14 -2.2503e-13 8.16457e-11 1.3287e-09 2.51555e-08 -0.000105825 0.000544428 0.0015457 0.00249458 0.00743534 0.00286003 0.001997 0.00094434 4.37797e-05 4.89688e-06 1.58373e-06 2.55608e-06 2.21325e-07 2.69344e-07 3.60108e-07 2.63382e-07 5.74002e-06 2.42792e-05 4.02972e-05 3.51117e-05 4.62179e-05 -3.64631e-05 0.000206236 0.00156979 0.00514819 0.017958 0.00460674 0.00193911 0.00245035 0.00947271 0.0067208 0.00393524 0.00192154 -0.00024413 0.000526204 0.000143945 0.000258241 -0.00154824 5.42428e-05 3.2866e-05 6.51581e-05 6.49445e-05 0.000152153 -0.000263926 0.000257367 0.00018025 0.000205162 -7.22232e-05 0.000168308 0.00104629 0.00276208 0.00813037 0.00355638 0.0018604 0.00175701 -0.00135254 0.00098601 0.00026488 0.000114292 8.14277e-05 4.22396e-06 6.36682e-07 9.54638e-09 -1.18015e-08 5.61832e-09 7.18975e-09 2.14058e-09 2.84683e-12 -1.24832e-17 -3.31485e-21
