scalar
part
         1
quad4
 4.20496e-07
 3.95865e-07
 3.69439e-07
 3.42837e-07
 3.17059e-07
 2.92674e-07
 2.69967e-07
 2.49041e-07
 2.29883e-07
 2.12421e-07
 1.96543e-07
 1.82124e-07
 1.69036e-07
 1.57152e-07
 1.46353e-07
 1.36532e-07
 1.27586e-07
 1.19427e-07
 1.11973e-07
 1.05153e-07
 5.08205e-07
 4.68672e-07
 4.29565e-07
 3.92417e-07
 3.57981e-07
 3.26537e-07
 2.98090e-07
 2.72495e-07
 2.49537e-07
 2.28969e-07
 2.10545e-07
 1.94031e-07
 1.79209e-07
 1.65885e-07
 1.53886e-07
 1.43056e-07
 1.33262e-07
 1.24385e-07
 1.16321e-07
 1.08980e-07
 6.14123e-07
 5.53612e-07
 4.97663e-07
 4.47161e-07
 4.02190e-07
 3.62438e-07
 3.27425e-07
 2.96620e-07
 2.69505e-07
 2.45603e-07
 2.24489e-07
 2.05790e-07
 1.89184e-07
 1.74394e-07
 1.61182e-07
 1.49345e-07
 1.38708e-07
 1.29123e-07
 1.20461e-07
 1.12612e-07
 7.39732e-07
 6.50639e-07
 5.73054e-07
 5.06197e-07
 4.48822e-07
 3.99604e-07
 3.57312e-07
 3.20865e-07
 2.89338e-07
 2.61957e-07
 2.38077e-07
 2.17162e-07
 1.98765e-07
 1.82518e-07
 1.68112e-07
 1.55289e-07
 1.43835e-07
 1.33567e-07
 1.24331e-07
 1.15998e-07
 8.84505e-07
 7.58141e-07
 6.53947e-07
 5.67899e-07
 4.96510e-07
 4.36929e-07
 3.86873e-07
 3.44537e-07
 3.08491e-07
 2.77603e-07
 2.50972e-07
 2.27877e-07
 2.07738e-07
 1.90086e-07
 1.74538e-07
 1.60780e-07
 1.48554e-07
 1.37644e-07
 1.27872e-07
 1.19088e-07
 1.04439e-06
 8.72229e-07
 7.37136e-07
 6.29768e-07
 5.43357e-07
 4.72981e-07
 4.15030e-07
 3.66823e-07
 3.26346e-07
 2.92067e-07
 2.62809e-07
 2.37654e-07
 2.15884e-07
 1.96926e-07
 1.80323e-07
 1.65706e-07
 1.52775e-07
 1.41282e-07
 1.31025e-07
 1.21834e-07
 1.21037e-06
 9.86254e-07
 8.17885e-07
 6.88461e-07
 5.86992e-07
 5.06069e-07
 4.40561e-07
 3.86831e-07
 3.42244e-07
 3.04858e-07
 2.73217e-07
 2.46210e-07
 2.22983e-07
 2.02867e-07
 1.85334e-07
 1.69963e-07
 1.56414e-07
 1.44414e-07
 1.33735e-07
 1.24191e-07
 1.36788e-06
 1.09093e-06
 8.90190e-07
 7.40021e-07
 6.24757e-07
 5.34370e-07
 4.62195e-07
 4.03658e-07
 3.55535e-07
 3.15500e-07
 2.81842e-07
 2.53278e-07
 2.28833e-07
 2.07752e-07
 1.89447e-07
 1.73453e-07
 1.59397e-07
 1.46978e-07
 1.35953e-07
 1.26120e-07
 1.49828e-06
 1.17543e-06
 9.47503e-07
 7.80349e-07
 6.54004e-07
 5.56129e-07
 4.78739e-07
 4.16475e-07
 3.65630e-07
 3.23567e-07
 2.88373e-07
 2.58626e-07
 2.33258e-07
 2.11449e-07
 1.92562e-07
 1.76097e-07
 1.61658e-07
 1.48924e-07
 1.37638e-07
 1.27588e-07
 1.58258e-06
 1.22940e-06
 9.83865e-07
 8.05849e-07
 6.72480e-07
 5.69882e-07
 4.89214e-07
 4.24613e-07
 3.72060e-07
 3.28725e-07
 2.92565e-07
 2.62074e-07
 2.36124e-07
 2.13853e-07
 1.94597e-07
 1.77833e-07
 1.63149e-07
 1.50214e-07
 1.38760e-07
 1.28570e-07
 1.60671e-06
 1.24553e-06
 9.95189e-07
 8.14111e-07
 6.78695e-07
 5.74677e-07
 4.92992e-07
 4.27642e-07
 3.74527e-07
 3.30761e-07
 2.94264e-07
 2.63508e-07
 2.37344e-07
 2.14901e-07
 1.95502e-07
 1.78622e-07
 1.63840e-07
 1.50822e-07
 1.39299e-07
 1.29049e-07
 1.56643e-06
 1.22163e-06
 9.80265e-07
 8.04419e-07
 6.72206e-07
 5.70225e-07
 4.89877e-07
 4.25429e-07
 3.72935e-07
 3.29605e-07
 2.93420e-07
 2.62888e-07
 2.36890e-07
 2.14568e-07
 1.95261e-07
 1.78449e-07
 1.63719e-07
 1.50740e-07
 1.39247e-07
 1.29020e-07
 1.46927e-06
 1.16147e-06
 9.41114e-07
 7.77922e-07
 6.53694e-07
 5.56947e-07
 4.80138e-07
 4.18148e-07
 3.67401e-07
 3.25337e-07
 2.90086e-07
 2.60255e-07
 2.34788e-07
 2.12876e-07
 1.93887e-07
 1.77325e-07
 1.62794e-07
 1.49974e-07
 1.38609e-07
 1.28486e-07
 1.33197e-06
 1.07366e-06
 8.82478e-07
 7.37379e-07
 6.24839e-07
 5.35901e-07
 4.64464e-07
 4.06260e-07
 3.58241e-07
 3.18179e-07
 2.84421e-07
 2.55722e-07
 2.31124e-07
 2.09887e-07
 1.91428e-07
 1.75287e-07
 1.61093e-07
 1.48546e-07
 1.37402e-07
 1.27461e-07
 1.17459e-06
 9.69126e-07
 8.10652e-07
 6.86576e-07
 5.88003e-07
 5.08613e-07
 4.43866e-07
 3.90453e-07
 3.45931e-07
 3.08466e-07
 2.76668e-07
 2.49466e-07
 2.26028e-07
 2.05699e-07
 1.87960e-07
 1.72392e-07
 1.58661e-07
 1.46490e-07
 1.35654e-07
 1.25966e-07
 1.01476e-06
 8.58439e-07
 7.32116e-07
 6.29602e-07
 5.45837e-07
 4.76842e-07
 4.19540e-07
 3.71556e-07
 3.31058e-07
 2.96622e-07
 2.67134e-07
 2.41717e-07
 2.19672e-07
 2.00443e-07
 1.83580e-07
 1.68718e-07
 1.55558e-07
 1.43854e-07
 1.33402e-07
 1.24033e-07
 8.64653e-07
 7.49917e-07
 6.52458e-07
 5.70221e-07
 5.00905e-07
 4.42360e-07
 3.92727e-07
 3.50453e-07
 3.14261e-07
 2.83114e-07
 2.56166e-07
 2.32732e-07
 2.12253e-07
 1.94270e-07
 1.78408e-07
 1.64356e-07
 1.51857e-07
 1.40696e-07
 1.30694e-07
 1.21698e-07
 7.30816e-07
 6.49006e-07
 5.75818e-07
 5.11473e-07
 4.55413e-07
 4.06768e-07
 3.64597e-07
 3.28001e-07
 2.96175e-07
 2.68416e-07
 2.44124e-07
 2.22788e-07
 2.03982e-07
 1.87344e-07
 1.72571e-07
 1.59408e-07
 1.47639e-07
 1.37081e-07
 1.27580e-07
 1.19004e-07
 6.15466e-07
 5.58551e-07
 5.04823e-07
 4.55530e-07
 4.11074e-07
 3.71388e-07
 3.36159e-07
 3.04974e-07
 2.77392e-07
 2.52985e-07
 2.31357e-07
 2.12157e-07
 1.95073e-07
 1.79833e-07
 1.66203e-07
 1.53980e-07
 1.42988e-07
 1.33077e-07
 1.24118e-07
 1.15997e-07
 5.18159e-07
 4.79472e-07
 4.40815e-07
 4.03739e-07
 3.69083e-07
 3.37218e-07
 3.08226e-07
 2.82020e-07
 2.58426e-07
 2.37226e-07
 2.18191e-07
 2.01096e-07
 1.85731e-07
 1.71902e-07
 1.59436e-07
 1.48178e-07
 1.37992e-07
 1.28756e-07
 1.20364e-07
 1.12724e-07
