scalar
part
         1
quad4
 5.63449e-07
 5.20106e-07
 4.77132e-07
 4.36146e-07
 3.98002e-07
 3.63057e-07
 3.31359e-07
 3.02784e-07
 2.77116e-07
 2.54101e-07
 2.33474e-07
 2.14980e-07
 1.98383e-07
 1.83466e-07
 1.70036e-07
 1.57923e-07
 1.46973e-07
 1.37055e-07
 1.28053e-07
 1.19863e-07
 6.67999e-07
 6.04803e-07
 5.45473e-07
 4.91273e-07
 4.42566e-07
 3.99215e-07
 3.60836e-07
 3.26941e-07
 2.97023e-07
 2.70599e-07
 2.47225e-07
 2.26505e-07
 2.08094e-07
 1.91692e-07
 1.77040e-07
 1.63914e-07
 1.52122e-07
 1.41499e-07
 1.31904e-07
 1.23215e-07
 7.91719e-07
 7.01487e-07
 6.21098e-07
 5.50665e-07
 4.89484e-07
 4.36535e-07
 3.90741e-07
 3.51085e-07
 3.16662e-07
 2.86690e-07
 2.60500e-07
 2.37532e-07
 2.17312e-07
 1.99444e-07
 1.83596e-07
 1.69489e-07
 1.56888e-07
 1.45593e-07
 1.35436e-07
 1.26276e-07
 9.34982e-07
 8.09085e-07
 7.02501e-07
 6.12829e-07
 5.37446e-07
 4.73928e-07
 4.20195e-07
 3.74516e-07
 3.35478e-07
 3.01934e-07
 2.72954e-07
 2.47786e-07
 2.25817e-07
 2.06546e-07
 1.89566e-07
 1.74536e-07
 1.61179e-07
 1.49261e-07
 1.38588e-07
 1.28995e-07
 1.09525e-06
 9.24430e-07
 7.86789e-07
 6.75390e-07
 5.84588e-07
 5.09962e-07
 4.48107e-07
 3.96404e-07
 3.52838e-07
 3.15847e-07
 2.84213e-07
 2.56978e-07
 2.33383e-07
 2.12823e-07
 1.94808e-07
 1.78944e-07
 1.64907e-07
 1.52432e-07
 1.41300e-07
 1.31326e-07
 1.26530e-06
 1.04154e-06
 8.69439e-07
 7.35044e-07
 6.28523e-07
 5.42913e-07
 4.73225e-07
 4.15834e-07
 3.68067e-07
 3.27926e-07
 2.93898e-07
 2.64820e-07
 2.39790e-07
 2.18101e-07
 1.99189e-07
 1.82606e-07
 1.67988e-07
 1.55039e-07
 1.43518e-07
 1.33223e-07
 1.43178e-06
 1.15134e-06
 9.44388e-07
 7.87727e-07
 6.66498e-07
 5.70889e-07
 4.94229e-07
 4.31868e-07
 3.80490e-07
 3.37679e-07
 3.01645e-07
 2.71040e-07
 2.44832e-07
 2.22223e-07
 2.02587e-07
 1.85427e-07
 1.70346e-07
 1.57023e-07
 1.45196e-07
 1.34651e-07
 1.57543e-06
 1.24237e-06
 1.00465e-06
 8.29064e-07
 6.95695e-07
 5.92027e-07
 5.09859e-07
 4.43639e-07
 3.89497e-07
 3.44668e-07
 3.07137e-07
 2.75403e-07
 2.48333e-07
 2.25058e-07
 2.04902e-07
 1.87331e-07
 1.71922e-07
 1.58336e-07
 1.46296e-07
 1.35577e-07
 1.67451e-06
 1.30288e-06
 1.04353e-06
 8.55054e-07
 7.13633e-07
 6.04739e-07
 5.19069e-07
 4.50438e-07
 3.94598e-07
 3.48549e-07
 3.10126e-07
 2.77729e-07
 2.50161e-07
 2.26506e-07
 2.06057e-07
 1.88258e-07
 1.72670e-07
 1.58943e-07
 1.46790e-07
 1.35979e-07
 1.71116e-06
 1.32383e-06
 1.05610e-06
 8.62862e-07
 7.18605e-07
 6.07956e-07
 5.21168e-07
 4.51807e-07
 3.95482e-07
 3.49106e-07
 3.10459e-07
 2.77910e-07
 2.50236e-07
 2.26508e-07
 2.06008e-07
 1.88175e-07
 1.72565e-07
 1.58823e-07
 1.46662e-07
 1.35847e-07
 1.67802e-06
 1.30162e-06
 1.04047e-06
 8.51440e-07
 7.10000e-07
 6.01309e-07
 5.15926e-07
 4.47600e-07
 3.92054e-07
 3.46275e-07
 3.08095e-07
 2.75914e-07
 2.48536e-07
 2.25048e-07
 2.04745e-07
 1.87076e-07
 1.71602e-07
 1.57974e-07
 1.45910e-07
 1.35178e-07
 1.58084e-06
 1.23922e-06
 9.98301e-07
 8.21767e-07
 6.88429e-07
 5.85197e-07
 5.03612e-07
 4.38003e-07
 3.84445e-07
 3.40153e-07
 3.03103e-07
 2.71796e-07
 2.45103e-07
 2.22160e-07
 2.02294e-07
 1.84979e-07
 1.69796e-07
 1.56409e-07
 1.44544e-07
 1.33981e-07
 1.43587e-06
 1.14507e-06
 9.34294e-07
 7.76622e-07
 6.55606e-07
 5.60718e-07
 4.84954e-07
 4.23511e-07
 3.73002e-07
 3.30985e-07
 2.95663e-07
 2.65689e-07
 2.40038e-07
 2.17918e-07
 1.98713e-07
 1.81931e-07
 1.67184e-07
 1.54155e-07
 1.42589e-07
 1.32274e-07
 1.26407e-06
 1.03061e-06
 8.55048e-07
 7.19987e-07
 6.14035e-07
 5.29497e-07
 4.61037e-07
 4.04869e-07
 3.58248e-07
 3.19148e-07
 2.86049e-07
 2.57795e-07
 2.33491e-07
 2.12440e-07
 1.94091e-07
 1.78002e-07
 1.63821e-07
 1.51258e-07
 1.40078e-07
 1.30087e-07
 1.08536e-06
 9.07489e-07
 7.67633e-07
 6.56303e-07
 5.66588e-07
 4.93445e-07
 4.33164e-07
 3.82984e-07
 3.40825e-07
 3.05105e-07
 2.74602e-07
 2.48368e-07
 2.25656e-07
 2.05872e-07
 1.88542e-07
 1.73281e-07
 1.59777e-07
 1.47773e-07
 1.37058e-07
 1.27455e-07
 9.14865e-07
 7.85447e-07
 6.78402e-07
 5.89777e-07
 5.16103e-07
 4.54513e-07
 4.02700e-07
 3.58827e-07
 3.21437e-07
 2.89371e-07
 2.61705e-07
 2.37698e-07
 2.16753e-07
 1.98385e-07
 1.82199e-07
 1.67872e-07
 1.55135e-07
 1.43766e-07
 1.33580e-07
 1.24422e-07
 7.61652e-07
 6.71304e-07
 5.92262e-07
 5.23904e-07
 4.65072e-07
 4.14488e-07
 3.70938e-07
 3.33346e-07
 3.00785e-07
 2.72473e-07
 2.47756e-07
 2.26088e-07
 2.07015e-07
 1.90160e-07
 1.75205e-07
 1.61888e-07
 1.49985e-07
 1.39311e-07
 1.29706e-07
 1.21036e-07
 6.29538e-07
 5.68908e-07
 5.12462e-07
 4.61249e-07
 4.15464e-07
 3.74863e-07
 3.39010e-07
 3.07397e-07
 2.79521e-07
 2.54910e-07
 2.33140e-07
 2.13838e-07
 1.96679e-07
 1.81383e-07
 1.67708e-07
 1.55448e-07
 1.44424e-07
 1.34484e-07
 1.25497e-07
 1.17350e-07
 5.18715e-07
 4.79732e-07
 4.40750e-07
 4.03442e-07
 3.68666e-07
 3.36774e-07
 3.07823e-07
 2.81701e-07
 2.58214e-07
 2.37131e-07
 2.18213e-07
 2.01231e-07
 1.85970e-07
 1.72236e-07
 1.59854e-07
 1.48670e-07
 1.38547e-07
 1.29365e-07
 1.21019e-07
 1.13416e-07
 4.27362e-07
 4.03638e-07
 3.77714e-07
 3.51318e-07
 3.25535e-07
 3.01002e-07
 2.78052e-07
 2.56824e-07
 2.37331e-07
 2.19518e-07
 2.03286e-07
 1.88519e-07
 1.75093e-07
 1.62885e-07
 1.51779e-07
 1.41666e-07
 1.32447e-07
 1.24030e-07
 1.16335e-07
 1.09289e-07
