# vtk DataFile Version 2.0
gauge_2
ASCII
DATASET POLYDATA
POINTS 69 double
0.2 0.0314993 0.005
0.2 0.0329993 0.005
0.2 0.0344993 0.005
0.2 0.0359992 0.005
0.2 0.0374992 0.005
0.2 0.0389992 0.005
0.2 0.0404991 0.005
0.2 0.0419991 0.005
0.2 0.0434991 0.005
0.2 0.044999 0.005
0.2 0.046499 0.005
0.2 0.047999 0.005
0.2 0.0511894 0.005
0.2 0.0543799 0.005
0.2 0.0575704 0.005
0.2 0.0607609 0.005
0.2 0.0639514 0.005
0.2 0.0671419 0.005
0.2 0.0703323 0.005
0.2 0.0735228 0.005
0.2 0.0767133 0.005
0.2 0.0799038 0.005
0.2 0.0830943 0.005
0.2 0.0862847 0.005
0.2 0.0894752 0.005
0.2 0.0926657 0.005
0.2 0.0958562 0.005
0.2 0.0990467 0.005
0.2 0.102237 0.005
0.2 0.105428 0.005
0.2 0.108618 0.005
0.2 0.111809 0.005
0.2 0.114999 0.005
0.2 0.11819 0.005
0.2 0.124571 0.005
0.2 0.137332 0.005
0.2 0.150094 0.005
0.2 0.162856 0.005
0.2 0.175618 0.005
0.2 0.18838 0.005
0.2 0.201142 0.005
0.2 0.213904 0.005
0.2 0.226666 0.005
0.2 0.239428 0.005
0.2 0.25219 0.005
0.2 0.264952 0.005
0.2 0.277714 0.005
0.2 0.290476 0.005
0.2 0.303238 0.005
0.2 0.315999 0.005
0.2 0.328761 0.005
0.2 0.341523 0.005
0.2 0.354285 0.005
0.2 0.367047 0.005
0.2 0.379809 0.005
0.2 0.392571 0.005
0.2 0.405333 0.005
0.2 0.418095 0.005
0.2 0.430857 0.005
0.2 0.443619 0.005
0.2 0.456381 0.005
0.2 0.469143 0.005
0.2 0.481905 0.005
0.2 0.494666 0.005
0.2 0.507428 0.005
0.2 0.52019 0.005
0.2 0.532952 0.005
0.2 0.545714 0.005
0.2 0.558476 0.005
POINT_DATA 69
 FIELD attributes 1
alpha.water 1 69 float
1 1 1 1 1 1 1 1 1 1 1 1 1 1 1 1 1 1 1 1 1 0.999999 0.999987 0.999935 0.999985 0.999714 0.999313 0.977676 0.85787 0.297194 0.0114106 5.40966e-10 1.09155e-09 9.39979e-10 2.8223e-06 3.54804e-05 2.70384e-05 2.6321e-06 2.75613e-10 3.52565e-10 2.48717e-10 5.28946e-11 4.8453e-12 2.36394e-13 1.10532e-14 -2.15492e-15 -6.99855e-15 -1.54917e-14 -2.38578e-14 -1.89279e-14 1.26396e-14 1.2921e-13 2.3954e-13 1.59265e-13 3.09167e-14 1.11877e-16 3.57586e-16 1.31846e-14 1.28869e-14 1.35457e-17 1.32435e-16 3.66333e-16 5.162e-16 5.17231e-16 3.6069e-16 1.325e-16 2.07424e-17 1.45193e-18 4.19294e-20
