# vtk DataFile Version 2.0
gauge_1
ASCII
DATASET POLYDATA
POINTS 8 double
0.02 0.201142 0.005
0.02 0.207523 0.005
0.02 0.213904 0.005
0.02 0.220285 0.005
0.02 0.226666 0.005
0.02 0.233047 0.005
0.02 0.239428 0.005
0.02 0.25219 0.005
POINT_DATA 8
 FIELD attributes 1
alpha.water 1 8 float
0.984912 0.909138 0.567323 0.147363 -7.56084e-19 -8.16481e-19 -1.19728e-18 -2.38254e-18
