# vtk DataFile Version 2.0
gauge_2
ASCII
DATASET POLYDATA
POINTS 110 double
0.2 0.0314993 0.005
0.2 0.0329993 0.005
0.2 0.0344993 0.005
0.2 0.0359992 0.005
0.2 0.0374992 0.005
0.2 0.0389992 0.005
0.2 0.0404991 0.005
0.2 0.0419991 0.005
0.2 0.0434991 0.005
0.2 0.044999 0.005
0.2 0.046499 0.005
0.2 0.047999 0.005
0.2 0.0511894 0.005
0.2 0.0543799 0.005
0.2 0.0575704 0.005
0.2 0.0607609 0.005
0.2 0.0639514 0.005
0.2 0.0671419 0.005
0.2 0.0703323 0.005
0.2 0.0735228 0.005
0.2 0.0767133 0.005
0.2 0.0799038 0.005
0.2 0.0830943 0.005
0.2 0.0862847 0.005
0.2 0.0894752 0.005
0.2 0.0926657 0.005
0.2 0.0990467 0.005
0.2 0.111809 0.005
0.2 0.124571 0.005
0.2 0.137332 0.005
0.2 0.150094 0.005
0.2 0.162856 0.005
0.2 0.175618 0.005
0.2 0.18838 0.005
0.2 0.201142 0.005
0.2 0.213904 0.005
0.2 0.220285 0.005
0.2 0.226666 0.005
0.2 0.229856 0.005
0.2 0.233047 0.005
0.2 0.236237 0.005
0.2 0.239428 0.005
0.2 0.242618 0.005
0.2 0.245809 0.005
0.2 0.248999 0.005
0.2 0.25219 0.005
0.2 0.258571 0.005
0.2 0.264952 0.005
0.2 0.277714 0.005
0.2 0.290476 0.005
0.2 0.296857 0.005
0.2 0.303238 0.005
0.2 0.309619 0.005
0.2 0.312809 0.005
0.2 0.315999 0.005
0.2 0.31919 0.005
0.2 0.32238 0.005
0.2 0.325571 0.005
0.2 0.328761 0.005
0.2 0.335142 0.005
0.2 0.341523 0.005
0.2 0.347904 0.005
0.2 0.354285 0.005
0.2 0.360666 0.005
0.2 0.363857 0.005
0.2 0.367047 0.005
0.2 0.370238 0.005
0.2 0.373428 0.005
0.2 0.376619 0.005
0.2 0.379809 0.005
0.2 0.383 0.005
0.2 0.38619 0.005
0.2 0.389381 0.005
0.2 0.392571 0.005
0.2 0.395762 0.005
0.2 0.398952 0.005
0.2 0.402142 0.005
0.2 0.405333 0.005
0.2 0.408523 0.005
0.2 0.411714 0.005
0.2 0.418095 0.005
0.2 0.424476 0.005
0.2 0.430857 0.005
0.2 0.437238 0.005
0.2 0.440428 0.005
0.2 0.443619 0.005
0.2 0.446809 0.005
0.2 0.45 0.005
0.2 0.45319 0.005
0.2 0.456381 0.005
0.2 0.459571 0.005
0.2 0.462762 0.005
0.2 0.465952 0.005
0.2 0.469143 0.005
0.2 0.472333 0.005
0.2 0.475524 0.005
0.2 0.478714 0.005
0.2 0.481905 0.005
0.2 0.485095 0.005
0.2 0.488286 0.005
0.2 0.491476 0.005
0.2 0.494666 0.005
0.2 0.497857 0.005
0.2 0.501047 0.005
0.2 0.507428 0.005
0.2 0.513809 0.005
0.2 0.52019 0.005
0.2 0.532952 0.005
0.2 0.545714 0.005
0.2 0.558476 0.005
POINT_DATA 110
 FIELD attributes 1
alpha.water 1 110 float
1 1 1 1 1 1 1 1 1 1 1 1 1 1 0.999999 0.999995 1 0.999972 0.999789 0.985937 0.997725 0.592522 0.184527 1.7985e-12 6.33446e-11 1.12243e-10 2.60491e-10 3.36479e-10 2.26627e-10 1.06862e-10 3.41113e-11 5.39404e-12 3.41111e-13 9.79105e-12 2.87406e-10 9.27624e-11 5.9532e-10 5.67069e-08 -0.000501358 4.15889e-06 0.000104609 0.000232541 1.97393e-05 1.48282e-05 1.71977e-05 1.98859e-05 1.25042e-06 1.0056e-06 1.31346e-06 9.57653e-08 1.7747e-08 2.43965e-06 0.000143544 0.000315412 0.000506145 4.13383e-05 0.000409002 0.00014543 1.1855e-05 2.37716e-05 5.21714e-05 7.56597e-05 8.9176e-05 2.21538e-05 4.43618e-06 0.000694705 0.00189819 0.00573784 0.00617999 0.00392381 5.37239e-05 0.00168185 0.000433854 4.49049e-07 -1.17346e-06 7.5756e-05 0.000241702 0.000175247 9.37848e-06 1.62468e-05 0.00019542 0.000169214 4.27811e-05 0.000248106 0.000402341 0.00047659 -0.000115191 1.58463e-05 0.000245604 0.000978497 0.00476573 0.00162854 0.00126684 0.00152988 -0.00121224 0.00058419 0.000111524 0.000103969 0.000182654 7.52704e-05 6.60343e-05 2.53592e-05 -2.15761e-10 -1.29828e-10 3.02893e-08 3.76506e-08 5.1035e-10 -9.22367e-18 -9.22437e-18 -7.01776e-22
