scalar
part
         1
quad4
 3.56816e-07
 3.43661e-07
 3.26931e-07
 3.08384e-07
 2.89225e-07
 2.70239e-07
 2.51918e-07
 2.34547e-07
 2.18272e-07
 2.03146e-07
 1.89165e-07
 1.76290e-07
 1.64459e-07
 1.53602e-07
 1.43644e-07
 1.34511e-07
 1.26131e-07
 1.18437e-07
 1.11365e-07
 1.04860e-07
 4.40932e-07
 4.15139e-07
 3.87224e-07
 3.59062e-07
 3.31780e-07
 3.06004e-07
 2.82041e-07
 2.59993e-07
 2.39843e-07
 2.21503e-07
 2.04852e-07
 1.89751e-07
 1.76060e-07
 1.63641e-07
 1.52368e-07
 1.42122e-07
 1.32797e-07
 1.24298e-07
 1.16537e-07
 1.09439e-07
 5.44614e-07
 5.00307e-07
 4.56997e-07
 4.16248e-07
 3.78766e-07
 3.44756e-07
 3.14149e-07
 2.86732e-07
 2.62231e-07
 2.40351e-07
 2.20806e-07
 2.03328e-07
 1.87674e-07
 1.73627e-07
 1.60995e-07
 1.49611e-07
 1.39327e-07
 1.30015e-07
 1.21564e-07
 1.13876e-07
 6.70537e-07
 6.00030e-07
 5.36215e-07
 4.79504e-07
 4.29600e-07
 3.85897e-07
 3.47689e-07
 3.14279e-07
 2.85020e-07
 2.59338e-07
 2.36733e-07
 2.16776e-07
 1.99100e-07
 1.83392e-07
 1.69388e-07
 1.56862e-07
 1.45624e-07
 1.35510e-07
 1.26380e-07
 1.18115e-07
 8.19960e-07
 7.13892e-07
 6.23840e-07
 5.47655e-07
 4.83177e-07
 4.28464e-07
 3.81856e-07
 3.41972e-07
 3.07674e-07
 2.78033e-07
 2.52287e-07
 2.29817e-07
 2.10112e-07
 1.92754e-07
 1.77397e-07
 1.63755e-07
 1.51589e-07
 1.40698e-07
 1.30915e-07
 1.22098e-07
 9.91262e-07
 8.39401e-07
 7.17422e-07
 6.18593e-07
 5.37783e-07
 4.71101e-07
 4.15589e-07
 3.68987e-07
 3.29552e-07
 2.95934e-07
 2.67075e-07
 2.42140e-07
 2.20464e-07
 2.01517e-07
 1.84866e-07
 1.70163e-07
 1.57119e-07
 1.45497e-07
 1.35102e-07
 1.25768e-07
 1.17820e-06
 9.71203e-07
 8.12777e-07
 6.89163e-07
 5.91073e-07
 5.12071e-07
 4.47599e-07
 3.94360e-07
 3.49929e-07
 3.12492e-07
 2.80675e-07
 2.53420e-07
 2.29904e-07
 2.09482e-07
 1.91637e-07
 1.75959e-07
 1.62112e-07
 1.49825e-07
 1.38873e-07
 1.29072e-07
 1.36841e-06
 1.10063e-06
 9.03928e-07
 7.55241e-07
 6.40178e-07
 5.49356e-07
 4.76446e-07
 4.17051e-07
 3.68041e-07
 3.27141e-07
 2.92663e-07
 2.63334e-07
 2.38183e-07
 2.16456e-07
 1.97559e-07
 1.81024e-07
 1.66473e-07
 1.53604e-07
 1.42166e-07
 1.31956e-07
 1.54304e-06
 1.21603e-06
 9.83506e-07
 8.12068e-07
 6.81951e-07
 5.80827e-07
 5.00660e-07
 4.36024e-07
 3.83148e-07
 3.39340e-07
 3.02637e-07
 2.71582e-07
 2.45072e-07
 2.22262e-07
 2.02494e-07
 1.85249e-07
 1.70117e-07
 1.56765e-07
 1.44925e-07
 1.34377e-07
 1.67871e-06
 1.30421e-06
 1.04375e-06
 8.54879e-07
 7.13364e-07
 6.04497e-07
 5.18900e-07
 4.50353e-07
 3.94593e-07
 3.48616e-07
 3.10252e-07
 2.77905e-07
 2.50376e-07
 2.26752e-07
 2.06326e-07
 1.88545e-07
 1.72971e-07
 1.59252e-07
 1.47104e-07
 1.36297e-07
 1.75290e-06
 1.35339e-06
 1.07805e-06
 8.79756e-07
 7.31985e-07
 6.18800e-07
 5.30125e-07
 4.59326e-07
 4.01878e-07
 3.54611e-07
 3.15246e-07
 2.82109e-07
 2.53948e-07
 2.29813e-07
 2.08969e-07
 1.90842e-07
 1.74980e-07
 1.61020e-07
 1.48668e-07
 1.37687e-07
 1.75210e-06
 1.35671e-06
 1.08261e-06
 8.84473e-07
 7.36438e-07
 6.22846e-07
 5.33740e-07
 4.62530e-07
 4.04711e-07
 3.57116e-07
 3.17463e-07
 2.84076e-07
 2.55699e-07
 2.31375e-07
 2.10367e-07
 1.92099e-07
 1.76112e-07
 1.62042e-07
 1.49595e-07
 1.38529e-07
 1.67819e-06
 1.31474e-06
 1.05759e-06
 8.69026e-07
 7.26667e-07
 6.16570e-07
 5.29680e-07
 4.59909e-07
 4.03043e-07
 3.56088e-07
 3.16869e-07
 2.83778e-07
 2.55604e-07
 2.31419e-07
 2.10505e-07
 1.92299e-07
 1.76353e-07
 1.62308e-07
 1.49874e-07
 1.38815e-07
 1.54765e-06
 1.23532e-06
 1.00702e-06
 8.35624e-07
 7.03943e-07
 6.00730e-07
 5.18414e-07
 4.51762e-07
 3.97068e-07
 3.51655e-07
 3.13549e-07
 2.81274e-07
 2.53704e-07
 2.29972e-07
 2.09402e-07
 1.91458e-07
 1.75713e-07
 1.61825e-07
 1.49512e-07
 1.38548e-07
 1.38418e-06
 1.13068e-06
 9.37582e-07
 7.88114e-07
 6.70574e-07
 5.76762e-07
 5.00863e-07
 4.38693e-07
 3.87193e-07
 3.44098e-07
 3.07701e-07
 2.76703e-07
 2.50101e-07
 2.27110e-07
 2.07112e-07
 1.89616e-07
 1.74224e-07
 1.60615e-07
 1.48527e-07
 1.37742e-07
 1.21028e-06
 1.01370e-06
 8.56870e-07
 7.31105e-07
 6.29446e-07
 5.46526e-07
 4.78256e-07
 4.21533e-07
 3.73993e-07
 3.33821e-07
 2.99613e-07
 2.70275e-07
 2.44947e-07
 2.22945e-07
 2.03722e-07
 1.86839e-07
 1.71935e-07
 1.58719e-07
 1.46948e-07
 1.36422e-07
 1.04232e-06
 8.95111e-07
 7.71822e-07
 6.69115e-07
 5.83543e-07
 5.12023e-07
 4.51960e-07
 4.01234e-07
 3.58139e-07
 3.21304e-07
 2.89634e-07
 2.62247e-07
 2.38435e-07
 2.17623e-07
 1.99343e-07
 1.83211e-07
 1.68913e-07
 1.56187e-07
 1.44817e-07
 1.34619e-07
 8.89709e-07
 7.82313e-07
 6.87837e-07
 6.05973e-07
 5.35560e-07
 4.75157e-07
 4.23329e-07
 3.78768e-07
 3.40336e-07
 3.07066e-07
 2.78149e-07
 2.52909e-07
 2.30785e-07
 2.11312e-07
 1.94103e-07
 1.78835e-07
 1.65237e-07
 1.53083e-07
 1.42183e-07
 1.32375e-07
 7.56332e-07
 6.79516e-07
 6.08540e-07
 5.44547e-07
 4.87681e-07
 4.37566e-07
 3.93584e-07
 3.55045e-07
 3.21267e-07
 2.91622e-07
 2.65549e-07
 2.42558e-07
 2.22226e-07
 2.04191e-07
 1.88143e-07
 1.73819e-07
 1.60994e-07
 1.49477e-07
 1.39103e-07
 1.29733e-07
 6.42560e-07
 5.88476e-07
 5.35984e-07
 4.86734e-07
 4.41507e-07
 4.00539e-07
 3.63743e-07
 3.30859e-07
 3.01550e-07
 2.75451e-07
 2.52208e-07
 2.31487e-07
 2.12987e-07
 1.96439e-07
 1.81606e-07
 1.68279e-07
 1.56277e-07
 1.45442e-07
 1.35638e-07
 1.26745e-07
