scalar
part
         1
quad4
 4.15110e-07
 3.92437e-07
 3.67657e-07
 3.42390e-07
 3.17663e-07
 2.94084e-07
 2.71978e-07
 2.51486e-07
 2.32632e-07
 2.15369e-07
 1.99612e-07
 1.85253e-07
 1.72179e-07
 1.60276e-07
 1.49434e-07
 1.39550e-07
 1.30531e-07
 1.22289e-07
 1.14748e-07
 1.07838e-07
 5.03547e-07
 4.66279e-07
 4.28994e-07
 3.93253e-07
 3.59867e-07
 3.29180e-07
 3.01257e-07
 2.76008e-07
 2.53258e-07
 2.32797e-07
 2.14407e-07
 1.97871e-07
 1.82991e-07
 1.69581e-07
 1.57479e-07
 1.46535e-07
 1.36620e-07
 1.27619e-07
 1.19431e-07
 1.11967e-07
 6.10787e-07
 5.52852e-07
 4.98852e-07
 4.49756e-07
 4.05755e-07
 3.66637e-07
 3.32008e-07
 3.01404e-07
 2.74361e-07
 2.50439e-07
 2.29243e-07
 2.10421e-07
 1.93666e-07
 1.78710e-07
 1.65326e-07
 1.53313e-07
 1.42502e-07
 1.32747e-07
 1.23920e-07
 1.15913e-07
 7.38665e-07
 6.52390e-07
 5.76754e-07
 5.11163e-07
 4.54550e-07
 4.05735e-07
 3.63600e-07
 3.27142e-07
 2.95497e-07
 2.67930e-07
 2.43822e-07
 2.22658e-07
 2.04004e-07
 1.87499e-07
 1.72840e-07
 1.59774e-07
 1.48087e-07
 1.37597e-07
 1.28152e-07
 1.19622e-07
 8.87213e-07
 7.63668e-07
 6.61157e-07
 5.75997e-07
 5.04969e-07
 4.45413e-07
 3.95175e-07
 3.52535e-07
 3.16121e-07
 2.84835e-07
 2.57799e-07
 2.34306e-07
 2.13785e-07
 1.95769e-07
 1.79879e-07
 1.65802e-07
 1.53278e-07
 1.42092e-07
 1.32063e-07
 1.23041e-07
 1.05321e-06
 8.83290e-07
 7.49122e-07
 6.41893e-07
 5.55175e-07
 4.84257e-07
 4.25653e-07
 3.76758e-07
 3.35599e-07
 3.00667e-07
 2.70795e-07
 2.45071e-07
 2.22777e-07
 2.03339e-07
 1.86297e-07
 1.71279e-07
 1.57981e-07
 1.46153e-07
 1.35590e-07
 1.26119e-07
 1.22870e-06
 1.00511e-06
 8.36130e-07
 7.05581e-07
 6.02803e-07
 5.20553e-07
 4.53783e-07
 3.98888e-07
 3.53245e-07
 3.14910e-07
 2.82418e-07
 2.54652e-07
 2.30747e-07
 2.10024e-07
 1.91949e-07
 1.76091e-07
 1.62104e-07
 1.49709e-07
 1.38673e-07
 1.28806e-07
 1.40013e-06
 1.12016e-06
 9.16216e-07
 7.63045e-07
 6.45111e-07
 5.52401e-07
 4.78224e-07
 4.17965e-07
 3.68361e-07
 3.27049e-07
 2.92285e-07
 2.62759e-07
 2.37473e-07
 2.15656e-07
 1.96702e-07
 1.80133e-07
 1.65565e-07
 1.52691e-07
 1.41258e-07
 1.31059e-07
 1.54902e-06
 1.21737e-06
 9.82538e-07
 8.09933e-07
 6.79254e-07
 5.77892e-07
 4.97668e-07
 4.33076e-07
 3.80297e-07
 3.36613e-07
 3.00047e-07
 2.69132e-07
 2.42760e-07
 2.20082e-07
 2.00439e-07
 1.83313e-07
 1.68292e-07
 1.55043e-07
 1.43299e-07
 1.32840e-07
 1.65482e-06
 1.28531e-06
 1.02842e-06
 8.42175e-07
 7.02660e-07
 5.95351e-07
 5.10992e-07
 4.43447e-07
 3.88508e-07
 3.43213e-07
 3.05422e-07
 2.73561e-07
 2.46449e-07
 2.23183e-07
 2.03069e-07
 1.85560e-07
 1.70225e-07
 1.56718e-07
 1.44759e-07
 1.34120e-07
 1.69983e-06
 1.31473e-06
 1.04868e-06
 8.56718e-07
 7.13446e-07
 6.03570e-07
 5.17398e-07
 4.48536e-07
 3.92617e-07
 3.46579e-07
 3.08213e-07
 2.75902e-07
 2.48430e-07
 2.24875e-07
 2.04526e-07
 1.86823e-07
 1.71328e-07
 1.57686e-07
 1.45613e-07
 1.34877e-07
 1.67538e-06
 1.30127e-06
 1.04095e-06
 8.52181e-07
 7.10768e-07
 6.02010e-07
 5.16527e-07
 4.48097e-07
 3.92452e-07
 3.46586e-07
 3.08330e-07
 2.76085e-07
 2.48653e-07
 2.25120e-07
 2.04779e-07
 1.87079e-07
 1.71579e-07
 1.57930e-07
 1.45849e-07
 1.35103e-07
 1.58597e-06
 1.24710e-06
 1.00638e-06
 8.29202e-07
 6.94993e-07
 5.90890e-07
 5.08515e-07
 4.42215e-07
 3.88066e-07
 3.43271e-07
 3.05795e-07
 2.74127e-07
 2.47127e-07
 2.23923e-07
 2.03834e-07
 1.86328e-07
 1.70981e-07
 1.57452e-07
 1.45466e-07
 1.34796e-07
 1.44807e-06
 1.16046e-06
 9.49389e-07
 7.90311e-07
 6.67638e-07
 5.71157e-07
 4.93970e-07
 4.31294e-07
 3.79733e-07
 3.36822e-07
 3.00741e-07
 2.70122e-07
 2.43923e-07
 2.21335e-07
 2.01728e-07
 1.84601e-07
 1.69556e-07
 1.56269e-07
 1.44478e-07
 1.33967e-07
 1.28370e-06
 1.05298e-06
 8.76521e-07
 7.39365e-07
 6.31075e-07
 5.44318e-07
 4.73881e-07
 4.15999e-07
 3.67910e-07
 3.27561e-07
 2.93399e-07
 2.64239e-07
 2.39162e-07
 2.17449e-07
 1.98530e-07
 1.81951e-07
 1.67344e-07
 1.54412e-07
 1.42910e-07
 1.32636e-07
 1.11325e-06
 9.36535e-07
 7.94880e-07
 6.80758e-07
 5.88102e-07
 5.12209e-07
 4.49481e-07
 3.97176e-07
 3.53192e-07
 3.15911e-07
 2.84076e-07
 2.56703e-07
 2.33014e-07
 2.12392e-07
 1.94339e-07
 1.78452e-07
 1.64405e-07
 1.51927e-07
 1.40798e-07
 1.30832e-07
 9.51277e-07
 8.20766e-07
 7.10791e-07
 6.18666e-07
 5.41518e-07
 4.76733e-07
 4.22089e-07
 3.75753e-07
 3.36241e-07
 3.02354e-07
 2.73126e-07
 2.47778e-07
 2.25679e-07
 2.06316e-07
 1.89270e-07
 1.74196e-07
 1.60809e-07
 1.48872e-07
 1.38188e-07
 1.28591e-07
 8.05831e-07
 7.12162e-07
 6.29062e-07
 5.56546e-07
 4.93788e-07
 4.39655e-07
 3.92974e-07
 3.52655e-07
 3.17737e-07
 2.87393e-07
 2.60926e-07
 2.37750e-07
 2.17375e-07
 1.99391e-07
 1.83457e-07
 1.69287e-07
 1.56639e-07
 1.45312e-07
 1.35133e-07
 1.25957e-07
 6.79929e-07
 6.14242e-07
 5.52819e-07
 4.96920e-07
 4.46864e-07
 4.02456e-07
 3.63255e-07
 3.28725e-07
 2.98319e-07
 2.71517e-07
 2.47852e-07
 2.26909e-07
 2.08326e-07
 1.91792e-07
 1.77038e-07
 1.63834e-07
 1.51984e-07
 1.41317e-07
 1.31689e-07
 1.22975e-07
 5.73417e-07
 5.28295e-07
 4.83738e-07
 4.41401e-07
 4.02137e-07
 3.66279e-07
 3.33847e-07
 3.04686e-07
 2.78554e-07
 2.55170e-07
 2.34252e-07
 2.15530e-07
 1.98752e-07
 1.83693e-07
 1.70152e-07
 1.57951e-07
 1.46933e-07
 1.36962e-07
 1.27918e-07
 1.19696e-07
