# f [Hz] vs PSD(f) [dB_Hz]
# Lower frequency: 2.50000000e+01
# Upper frequency: 1.00000000e+04
# Window model  : Hanning
# Window number : 3
# Window samples: 4096
# Window overlap %: 5.00000000e+01
# dBRef         : 2.00000000e-05
# f             	PSD(f)          
2.50000000e+01	-1.41812618e+02
2.50244141e+01	-1.38073324e+02
2.50488281e+01	-1.36704320e+02
2.50732422e+01	-1.39391792e+02
2.50976562e+01	-1.33186890e+02
2.51220703e+01	-1.33219680e+02
2.51464844e+01	-1.35023079e+02
2.51708984e+01	-1.31181894e+02
2.51953125e+01	-1.32369124e+02
2.52197266e+01	-1.37018860e+02
2.52441406e+01	-1.38128967e+02
2.52685547e+01	-1.36295978e+02
2.52929688e+01	-1.38221672e+02
2.53173828e+01	-1.41723151e+02
2.53417969e+01	-1.38653382e+02
2.53662109e+01	-1.29678573e+02
2.53906250e+01	-1.27938932e+02
2.54150391e+01	-1.33094094e+02
2.54394531e+01	-1.36295536e+02
2.54638672e+01	-1.37556601e+02
2.54882812e+01	-1.35974334e+02
2.55126953e+01	-1.36952904e+02
2.55371094e+01	-1.37928747e+02
2.55615234e+01	-1.35067457e+02
2.55859375e+01	-1.35259681e+02
2.56103516e+01	-1.34369901e+02
2.56347656e+01	-1.37813037e+02
2.56591797e+01	-1.38094745e+02
2.56835938e+01	-1.37699394e+02
2.57080078e+01	-1.34787560e+02
2.57324219e+01	-1.32481828e+02
2.57568359e+01	-1.32470740e+02
2.57812500e+01	-1.30564230e+02
2.58056641e+01	-1.30660921e+02
2.58300781e+01	-1.32314998e+02
2.58544922e+01	-1.33851619e+02
2.58789062e+01	-1.35094968e+02
2.59033203e+01	-1.36154748e+02
2.59277344e+01	-1.37104798e+02
2.59521484e+01	-1.39273721e+02
2.59765625e+01	-1.43114449e+02
2.60009766e+01	-1.47420296e+02
2.60253906e+01	-1.35500156e+02
2.60498047e+01	-1.30344746e+02
2.60742188e+01	-1.32359766e+02
2.60986328e+01	-1.42443156e+02
2.61230469e+01	-1.39739403e+02
2.61474609e+01	-1.37949295e+02
2.61718750e+01	-1.39750356e+02
2.61962891e+01	-1.40236190e+02
2.62207031e+01	-1.37140936e+02
2.62451172e+01	-1.33155323e+02
2.62695312e+01	-1.30464746e+02
2.62939453e+01	-1.31933477e+02
2.63183594e+01	-1.37335333e+02
2.63427734e+01	-1.38764480e+02
2.63671875e+01	-1.37884278e+02
2.63916016e+01	-1.37929972e+02
2.64160156e+01	-1.34644237e+02
2.64404297e+01	-1.31775625e+02
2.64648438e+01	-1.34909631e+02
2.64892578e+01	-1.30298034e+02
2.65136719e+01	-1.29582635e+02
2.65380859e+01	-1.35502374e+02
2.65625000e+01	-1.37034310e+02
2.65869141e+01	-1.35734289e+02
2.66113281e+01	-1.34377010e+02
2.66357422e+01	-1.38864533e+02
2.66601562e+01	-1.41562815e+02
2.66845703e+01	-1.35377762e+02
2.67089844e+01	-1.27598914e+02
2.67333984e+01	-1.30195950e+02
2.67578125e+01	-1.43539868e+02
2.67822266e+01	-1.41984016e+02
2.68066406e+01	-1.36464098e+02
2.68310547e+01	-1.39091020e+02
2.68554688e+01	-1.42783880e+02
2.68798828e+01	-1.38572890e+02
2.69042969e+01	-1.29286643e+02
2.69287109e+01	-1.27588098e+02
2.69531250e+01	-1.36926045e+02
2.69775391e+01	-1.37389483e+02
2.70019531e+01	-1.37883538e+02
2.70263672e+01	-1.38923030e+02
2.70507812e+01	-1.35103060e+02
2.70751953e+01	-1.33476678e+02
2.70996094e+01	-1.30683548e+02
2.71240234e+01	-1.35241532e+02
2.71484375e+01	-1.28563854e+02
2.71728516e+01	-1.29830632e+02
2.71972656e+01	-1.36780163e+02
2.72216797e+01	-1.36487835e+02
2.72460938e+01	-1.35265027e+02
2.72705078e+01	-1.37557554e+02
2.72949219e+01	-1.38495552e+02
2.73193359e+01	-1.35355588e+02
2.73437500e+01	-1.34136723e+02
2.73681641e+01	-1.34070573e+02
2.73925781e+01	-1.35951974e+02
2.74169922e+01	-1.38462639e+02
2.74414062e+01	-1.37961303e+02
2.74658203e+01	-1.36747977e+02
2.74902344e+01	-1.36701345e+02
2.75146484e+01	-1.36712648e+02
2.75390625e+01	-1.33827679e+02
2.75634766e+01	-1.36391564e+02
2.75878906e+01	-1.29275847e+02
2.76123047e+01	-1.30723344e+02
2.76367188e+01	-1.40481194e+02
2.76611328e+01	-1.41627049e+02
2.76855469e+01	-1.37724915e+02
2.77099609e+01	-1.37425803e+02
2.77343750e+01	-1.39624008e+02
2.77587891e+01	-1.37493400e+02
2.77832031e+01	-1.36611841e+02
2.78076172e+01	-1.32087085e+02
2.78320312e+01	-1.31397639e+02
2.78564453e+01	-1.36176813e+02
2.78808594e+01	-1.35742829e+02
2.79052734e+01	-1.35747054e+02
2.79296875e+01	-1.36501408e+02
2.79541016e+01	-1.35768674e+02
2.79785156e+01	-1.33833659e+02
2.80029297e+01	-1.32337856e+02
2.80273438e+01	-1.33380917e+02
2.80517578e+01	-1.32220851e+02
2.80761719e+01	-1.37117732e+02
2.81005859e+01	-1.40935360e+02
2.81250000e+01	-1.33713246e+02
2.81494141e+01	-1.34908012e+02
2.81738281e+01	-1.40053507e+02
2.81982422e+01	-1.43751722e+02
2.82226562e+01	-1.42405746e+02
2.82470703e+01	-1.34930952e+02
2.82714844e+01	-1.35663416e+02
2.82958984e+01	-1.38920747e+02
2.83203125e+01	-1.40885751e+02
2.83447266e+01	-1.37657486e+02
2.83691406e+01	-1.39219535e+02
2.83935547e+01	-1.37180451e+02
2.84179688e+01	-1.35937053e+02
2.84423828e+01	-1.41306881e+02
2.84667969e+01	-1.32150551e+02
2.84912109e+01	-1.29609809e+02
2.85156250e+01	-1.33493554e+02
2.85400391e+01	-1.36739925e+02
2.85644531e+01	-1.38203718e+02
2.85888672e+01	-1.40129170e+02
2.86132812e+01	-1.37094663e+02
2.86376953e+01	-1.34519106e+02
2.86621094e+01	-1.34099500e+02
2.86865234e+01	-1.31056541e+02
2.87109375e+01	-1.32174329e+02
2.87353516e+01	-1.40938842e+02
2.87597656e+01	-1.41139476e+02
2.87841797e+01	-1.37302991e+02
2.88085938e+01	-1.37646392e+02
2.88330078e+01	-1.36823802e+02
2.88574219e+01	-1.35527599e+02
2.88818359e+01	-1.37958247e+02
2.89062500e+01	-1.40717592e+02
2.89306641e+01	-1.40246892e+02
2.89550781e+01	-1.42237944e+02
2.89794922e+01	-1.39207368e+02
2.90039062e+01	-1.34332070e+02
2.90283203e+01	-1.35506872e+02
2.90527344e+01	-1.39779231e+02
2.90771484e+01	-1.39837092e+02
2.91015625e+01	-1.38822377e+02
2.91259766e+01	-1.37910965e+02
2.91503906e+01	-1.39844899e+02
2.91748047e+01	-1.43417604e+02
2.91992188e+01	-1.42616255e+02
2.92236328e+01	-1.40361221e+02
2.92480469e+01	-1.38037426e+02
2.92724609e+01	-1.42272353e+02
2.92968750e+01	-1.43446655e+02
2.93212891e+01	-1.36447189e+02
2.93457031e+01	-1.34612088e+02
2.93701172e+01	-1.35975439e+02
2.93945312e+01	-1.39710148e+02
2.94189453e+01	-1.42101861e+02
2.94433594e+01	-1.42726536e+02
2.94677734e+01	-1.41789207e+02
2.94921875e+01	-1.44508124e+02
2.95166016e+01	-1.39059135e+02
2.95410156e+01	-1.35463914e+02
2.95654297e+01	-1.39008746e+02
2.95898438e+01	-1.36808360e+02
2.96142578e+01	-1.39852299e+02
2.96386719e+01	-1.40745530e+02
2.96630859e+01	-1.39847643e+02
2.96875000e+01	-1.38266483e+02
2.97119141e+01	-1.36892822e+02
2.97363281e+01	-1.38104562e+02
2.97607422e+01	-1.42945751e+02
2.97851562e+01	-1.42823067e+02
2.98095703e+01	-1.39455951e+02
2.98339844e+01	-1.38717996e+02
2.98583984e+01	-1.42134507e+02
2.98828125e+01	-1.43771502e+02
2.99072266e+01	-1.36779674e+02
2.99316406e+01	-1.34262971e+02
2.99560547e+01	-1.36738181e+02
2.99804688e+01	-1.39376139e+02
3.00048828e+01	-1.32019326e+02
3.00292969e+01	-1.32887251e+02
3.00537109e+01	-1.39113137e+02
3.00781250e+01	-1.36028316e+02
3.01025391e+01	-1.35317872e+02
3.01269531e+01	-1.34651986e+02
3.01513672e+01	-1.37541720e+02
3.01757812e+01	-1.36319260e+02
3.02001953e+01	-1.38062051e+02
3.02246094e+01	-1.38375905e+02
3.02490234e+01	-1.41282075e+02
3.02734375e+01	-1.44306561e+02
3.02978516e+01	-1.43138346e+02
3.03222656e+01	-1.41943415e+02
3.03466797e+01	-1.42013092e+02
3.03710938e+01	-1.38833101e+02
3.03955078e+01	-1.37936810e+02
3.04199219e+01	-1.38132308e+02
3.04443359e+01	-1.34015371e+02
3.04687500e+01	-1.32847473e+02
3.04931641e+01	-1.36021260e+02
3.05175781e+01	-1.37403877e+02
3.05419922e+01	-1.38470646e+02
3.05664062e+01	-1.38749971e+02
3.05908203e+01	-1.42723678e+02
3.06152344e+01	-1.39505117e+02
3.06396484e+01	-1.41929248e+02
3.06640625e+01	-1.31961666e+02
3.06884766e+01	-1.30758771e+02
3.07128906e+01	-1.33999603e+02
3.07373047e+01	-1.36439544e+02
3.07617188e+01	-1.42477124e+02
3.07861328e+01	-1.36004764e+02
3.08105469e+01	-1.37179825e+02
3.08349609e+01	-1.40501878e+02
3.08593750e+01	-1.39737224e+02
3.08837891e+01	-1.34891772e+02
3.09082031e+01	-1.31489033e+02
3.09326172e+01	-1.38029425e+02
3.09570312e+01	-1.42247013e+02
3.09814453e+01	-1.43460027e+02
3.10058594e+01	-1.36930872e+02
3.10302734e+01	-1.38839094e+02
3.10546875e+01	-1.36368265e+02
3.10791016e+01	-1.35684668e+02
3.11035156e+01	-1.34418538e+02
3.11279297e+01	-1.36613438e+02
3.11523438e+01	-1.42467254e+02
3.11767578e+01	-1.44437281e+02
3.12011719e+01	-1.38828540e+02
3.12255859e+01	-1.36357637e+02
3.12500000e+01	-1.34481515e+02
3.12744141e+01	-1.32792130e+02
3.12988281e+01	-1.31975349e+02
3.13232422e+01	-1.36293548e+02
3.13476562e+01	-1.38978620e+02
3.13720703e+01	-1.36212392e+02
3.13964844e+01	-1.34965034e+02
3.14208984e+01	-1.34198547e+02
3.14453125e+01	-1.33425691e+02
3.14697266e+01	-1.34104097e+02
3.14941406e+01	-1.31326069e+02
3.15185547e+01	-1.29998176e+02
3.15429688e+01	-1.35595570e+02
3.15673828e+01	-1.37382042e+02
3.15917969e+01	-1.41522566e+02
3.16162109e+01	-1.41139819e+02
3.16406250e+01	-1.39185330e+02
3.16650391e+01	-1.39867825e+02
3.16894531e+01	-1.42578616e+02
3.17138672e+01	-1.38141227e+02
3.17382812e+01	-1.33987777e+02
3.17626953e+01	-1.34076506e+02
3.17871094e+01	-1.32471849e+02
3.18115234e+01	-1.35688093e+02
3.18359375e+01	-1.37726712e+02
3.18603516e+01	-1.40445076e+02
3.18847656e+01	-1.32914795e+02
3.19091797e+01	-1.32761099e+02
3.19335938e+01	-1.34076399e+02
3.19580078e+01	-1.34389727e+02
3.19824219e+01	-1.32253983e+02
3.20068359e+01	-1.30704040e+02
3.20312500e+01	-1.35136092e+02
3.20556641e+01	-1.36484469e+02
3.20800781e+01	-1.37676061e+02
3.21044922e+01	-1.37484208e+02
3.21289062e+01	-1.37114064e+02
3.21533203e+01	-1.35915960e+02
3.21777344e+01	-1.33839413e+02
3.22021484e+01	-1.28656366e+02
3.22265625e+01	-1.27184226e+02
3.22509766e+01	-1.35485344e+02
3.22753906e+01	-1.33444390e+02
3.22998047e+01	-1.32190628e+02
3.23242188e+01	-1.29649169e+02
3.23486328e+01	-1.32065810e+02
3.23730469e+01	-1.34443738e+02
3.23974609e+01	-1.26830186e+02
3.24218750e+01	-1.25808600e+02
3.24462891e+01	-1.24845724e+02
3.24707031e+01	-1.28993634e+02
3.24951172e+01	-1.30348325e+02
3.25195312e+01	-1.29146790e+02
3.25439453e+01	-1.30471355e+02
3.25683594e+01	-1.28318533e+02
3.25927734e+01	-1.30333071e+02
3.26171875e+01	-1.28806413e+02
3.26416016e+01	-1.26749475e+02
3.26660156e+01	-1.25481381e+02
3.26904297e+01	-1.30912142e+02
3.27148438e+01	-1.32549911e+02
3.27392578e+01	-1.30795402e+02
3.27636719e+01	-1.30543644e+02
3.27880859e+01	-1.32253088e+02
3.28125000e+01	-1.32579081e+02
3.28369141e+01	-1.29454392e+02
3.28613281e+01	-1.26533661e+02
3.28857422e+01	-1.26234664e+02
3.29101562e+01	-1.33599163e+02
3.29345703e+01	-1.37425422e+02
3.29589844e+01	-1.36910014e+02
3.29833984e+01	-1.37658305e+02
3.30078125e+01	-1.36477984e+02
3.30322266e+01	-1.36686671e+02
3.30566406e+01	-1.36065729e+02
3.30810547e+01	-1.34822267e+02
3.31054688e+01	-1.37348399e+02
3.31298828e+01	-1.36520583e+02
3.31542969e+01	-1.37049574e+02
3.31787109e+01	-1.34563321e+02
3.32031250e+01	-1.35019062e+02
3.32275391e+01	-1.40864168e+02
3.32519531e+01	-1.31248219e+02
3.32763672e+01	-1.32826495e+02
3.33007812e+01	-1.33140856e+02
3.33251953e+01	-1.33528245e+02
3.33496094e+01	-1.37920809e+02
3.33740234e+01	-1.36967828e+02
3.33984375e+01	-1.33594503e+02
3.34228516e+01	-1.35155374e+02
3.34472656e+01	-1.37768921e+02
3.34716797e+01	-1.31540874e+02
3.34960938e+01	-1.30116097e+02
3.35205078e+01	-1.28017856e+02
3.35449219e+01	-1.28732566e+02
3.35693359e+01	-1.35018505e+02
3.35937500e+01	-1.36231512e+02
3.36181641e+01	-1.32434414e+02
3.36425781e+01	-1.32607632e+02
3.36669922e+01	-1.34756091e+02
3.36914062e+01	-1.31921709e+02
3.37158203e+01	-1.27263940e+02
3.37402344e+01	-1.23559149e+02
3.37646484e+01	-1.23830189e+02
3.37890625e+01	-1.32675060e+02
3.38134766e+01	-1.38664629e+02
3.38378906e+01	-1.32314608e+02
3.38623047e+01	-1.31897638e+02
3.38867188e+01	-1.32441183e+02
3.39111328e+01	-1.31737749e+02
3.39355469e+01	-1.29790064e+02
3.39599609e+01	-1.24682710e+02
3.39843750e+01	-1.24481825e+02
3.40087891e+01	-1.32675690e+02
3.40332031e+01	-1.39584458e+02
3.40576172e+01	-1.39494179e+02
3.40820312e+01	-1.37828743e+02
3.41064453e+01	-1.39208082e+02
3.41308594e+01	-1.35673755e+02
3.41552734e+01	-1.33760315e+02
3.41796875e+01	-1.34662820e+02
3.42041016e+01	-1.33889644e+02
3.42285156e+01	-1.37763403e+02
3.42529297e+01	-1.32617943e+02
3.42773438e+01	-1.31961266e+02
3.43017578e+01	-1.35209378e+02
3.43261719e+01	-1.32909329e+02
3.43505859e+01	-1.31577083e+02
3.43750000e+01	-1.31631118e+02
3.43994141e+01	-1.30094732e+02
3.44238281e+01	-1.31068760e+02
3.44482422e+01	-1.38797973e+02
3.44726562e+01	-1.43065504e+02
3.44970703e+01	-1.41137232e+02
3.45214844e+01	-1.42448126e+02
3.45458984e+01	-1.39262753e+02
3.45703125e+01	-1.33674059e+02
3.45947266e+01	-1.33112041e+02
3.46191406e+01	-1.32487896e+02
3.46435547e+01	-1.34999011e+02
3.46679688e+01	-1.42950662e+02
3.46923828e+01	-1.41956325e+02
3.47167969e+01	-1.40253973e+02
3.47412109e+01	-1.46818252e+02
3.47656250e+01	-1.42599360e+02
3.47900391e+01	-1.36116231e+02
3.48144531e+01	-1.34707044e+02
3.48388672e+01	-1.41732921e+02
3.48632812e+01	-1.35096215e+02
3.48876953e+01	-1.34932606e+02
3.49121094e+01	-1.38335576e+02
3.49365234e+01	-1.32569482e+02
3.49609375e+01	-1.32478734e+02
3.49853516e+01	-1.34517335e+02
3.50097656e+01	-1.35666647e+02
3.50341797e+01	-1.36278800e+02
3.50585938e+01	-1.34150754e+02
3.50830078e+01	-1.40334102e+02
3.51074219e+01	-1.43696720e+02
3.51318359e+01	-1.38157828e+02
3.51562500e+01	-1.34141942e+02
3.51806641e+01	-1.33753054e+02
3.52050781e+01	-1.34845375e+02
3.52294922e+01	-1.35931246e+02
3.52539062e+01	-1.37029734e+02
3.52783203e+01	-1.32956834e+02
3.53027344e+01	-1.32185892e+02
3.53271484e+01	-1.39190828e+02
3.53515625e+01	-1.43019810e+02
3.53759766e+01	-1.39500635e+02
3.54003906e+01	-1.36224973e+02
3.54248047e+01	-1.34004407e+02
3.54492188e+01	-1.36040221e+02
3.54736328e+01	-1.35955176e+02
3.54980469e+01	-1.35924647e+02
3.55224609e+01	-1.35932958e+02
3.55468750e+01	-1.40352569e+02
3.55712891e+01	-1.41636706e+02
3.55957031e+01	-1.39256071e+02
3.56201172e+01	-1.41109328e+02
3.56445312e+01	-1.39364535e+02
3.56689453e+01	-1.38336127e+02
3.56933594e+01	-1.34281571e+02
3.57177734e+01	-1.35084924e+02
3.57421875e+01	-1.38832086e+02
3.57666016e+01	-1.43141681e+02
3.57910156e+01	-1.45150540e+02
3.58154297e+01	-1.39862529e+02
3.58398438e+01	-1.40847394e+02
3.58642578e+01	-1.40564822e+02
3.58886719e+01	-1.39930733e+02
3.59130859e+01	-1.34915071e+02
3.59375000e+01	-1.30810601e+02
3.59619141e+01	-1.30423974e+02
3.59863281e+01	-1.34392387e+02
3.60107422e+01	-1.42351286e+02
3.60351562e+01	-1.42263798e+02
3.60595703e+01	-1.36098029e+02
3.60839844e+01	-1.38106218e+02
3.61083984e+01	-1.41836247e+02
3.61328125e+01	-1.38030857e+02
3.61572266e+01	-1.32381803e+02
3.61816406e+01	-1.33160127e+02
3.62060547e+01	-1.37644974e+02
3.62304688e+01	-1.37553507e+02
3.62548828e+01	-1.37392959e+02
3.62792969e+01	-1.41187832e+02
3.63037109e+01	-1.40569632e+02
3.63281250e+01	-1.36752601e+02
3.63525391e+01	-1.33589036e+02
3.63769531e+01	-1.29794689e+02
3.64013672e+01	-1.29200502e+02
3.64257812e+01	-1.33536180e+02
3.64501953e+01	-1.41413030e+02
3.64746094e+01	-1.41450483e+02
3.64990234e+01	-1.39751335e+02
3.65234375e+01	-1.41362314e+02
3.65478516e+01	-1.40870890e+02
3.65722656e+01	-1.36189035e+02
3.65966797e+01	-1.35770288e+02
3.66210938e+01	-1.39257685e+02
3.66455078e+01	-1.35454197e+02
3.66699219e+01	-1.33050921e+02
3.66943359e+01	-1.39044186e+02
3.67187500e+01	-1.36523552e+02
3.67431641e+01	-1.36295080e+02
3.67675781e+01	-1.34116079e+02
3.67919922e+01	-1.32407673e+02
3.68164062e+01	-1.31973569e+02
3.68408203e+01	-1.31755578e+02
3.68652344e+01	-1.35509103e+02
3.68896484e+01	-1.38542861e+02
3.69140625e+01	-1.42275417e+02
3.69384766e+01	-1.40109118e+02
3.69628906e+01	-1.42295884e+02
3.69873047e+01	-1.34024712e+02
3.70117188e+01	-1.31091841e+02
3.70361328e+01	-1.33969111e+02
3.70605469e+01	-1.34648547e+02
3.70849609e+01	-1.36386647e+02
3.71093750e+01	-1.36277139e+02
3.71337891e+01	-1.38191487e+02
3.71582031e+01	-1.42659129e+02
3.71826172e+01	-1.39881747e+02
3.72070312e+01	-1.37856924e+02
3.72314453e+01	-1.33840000e+02
3.72558594e+01	-1.34464165e+02
3.72802734e+01	-1.33273905e+02
3.73046875e+01	-1.33841804e+02
3.73291016e+01	-1.40203093e+02
3.73535156e+01	-1.45087249e+02
3.73779297e+01	-1.36162662e+02
3.74023438e+01	-1.41513945e+02
3.74267578e+01	-1.41641789e+02
3.74511719e+01	-1.35388510e+02
3.74755859e+01	-1.34191451e+02
3.75000000e+01	-1.32835642e+02
3.75244141e+01	-1.35568226e+02
3.75488281e+01	-1.40003612e+02
3.75732422e+01	-1.40216615e+02
3.75976562e+01	-1.36282308e+02
3.76220703e+01	-1.33959716e+02
3.76464844e+01	-1.33680731e+02
3.76708984e+01	-1.39785224e+02
3.76953125e+01	-1.37882023e+02
3.77197266e+01	-1.33435500e+02
3.77441406e+01	-1.34934155e+02
3.77685547e+01	-1.33196824e+02
3.77929688e+01	-1.33437170e+02
3.78173828e+01	-1.34697782e+02
3.78417969e+01	-1.35099333e+02
3.78662109e+01	-1.35623417e+02
3.78906250e+01	-1.37743776e+02
3.79150391e+01	-1.38892636e+02
3.79394531e+01	-1.33778527e+02
3.79638672e+01	-1.35486648e+02
3.79882812e+01	-1.34580031e+02
3.80126953e+01	-1.34125641e+02
3.80371094e+01	-1.38708757e+02
3.80615234e+01	-1.36654451e+02
3.80859375e+01	-1.33561653e+02
3.81103516e+01	-1.40468254e+02
3.81347656e+01	-1.34068160e+02
3.81591797e+01	-1.31563254e+02
3.81835938e+01	-1.36419856e+02
3.82080078e+01	-1.41637111e+02
3.82324219e+01	-1.43338704e+02
3.82568359e+01	-1.39954151e+02
3.82812500e+01	-1.39116456e+02
3.83056641e+01	-1.35058625e+02
3.83300781e+01	-1.36653065e+02
3.83544922e+01	-1.36766315e+02
3.83789062e+01	-1.36340419e+02
3.84033203e+01	-1.41196269e+02
3.84277344e+01	-1.43521335e+02
3.84521484e+01	-1.40310139e+02
3.84765625e+01	-1.41175948e+02
3.85009766e+01	-1.37199165e+02
3.85253906e+01	-1.34263748e+02
3.85498047e+01	-1.37323729e+02
3.85742188e+01	-1.36211002e+02
3.85986328e+01	-1.33483772e+02
3.86230469e+01	-1.38006372e+02
3.86474609e+01	-1.39074584e+02
3.86718750e+01	-1.39232711e+02
3.86962891e+01	-1.40193739e+02
3.87207031e+01	-1.41815646e+02
3.87451172e+01	-1.33467739e+02
3.87695312e+01	-1.33793439e+02
3.87939453e+01	-1.36225027e+02
3.88183594e+01	-1.32578495e+02
3.88427734e+01	-1.34175745e+02
3.88671875e+01	-1.36611328e+02
3.88916016e+01	-1.34046417e+02
3.89160156e+01	-1.34502356e+02
3.89404297e+01	-1.34691070e+02
3.89648438e+01	-1.33039564e+02
3.89892578e+01	-1.33551964e+02
3.90136719e+01	-1.33912073e+02
3.90380859e+01	-1.33646320e+02
3.90625000e+01	-1.39367415e+02
3.90869141e+01	-1.37825351e+02
3.91113281e+01	-1.39962359e+02
3.91357422e+01	-1.41535990e+02
3.91601562e+01	-1.39300882e+02
3.91845703e+01	-1.37705191e+02
3.92089844e+01	-1.37807917e+02
3.92333984e+01	-1.37432604e+02
3.92578125e+01	-1.40670440e+02
3.92822266e+01	-1.36237282e+02
3.93066406e+01	-1.37026330e+02
3.93310547e+01	-1.40831789e+02
3.93554688e+01	-1.37251927e+02
3.93798828e+01	-1.36463688e+02
3.94042969e+01	-1.34779094e+02
3.94287109e+01	-1.34679367e+02
3.94531250e+01	-1.38067429e+02
3.94775391e+01	-1.34832631e+02
3.95019531e+01	-1.37352473e+02
3.95263672e+01	-1.41288179e+02
3.95507812e+01	-1.39007007e+02
3.95751953e+01	-1.37211930e+02
3.95996094e+01	-1.34858022e+02
3.96240234e+01	-1.33385323e+02
3.96484375e+01	-1.35688395e+02
3.96728516e+01	-1.34017530e+02
3.96972656e+01	-1.31269838e+02
3.97216797e+01	-1.34597903e+02
3.97460938e+01	-1.39436163e+02
3.97705078e+01	-1.37922697e+02
3.97949219e+01	-1.35749232e+02
3.98193359e+01	-1.34524833e+02
3.98437500e+01	-1.37788463e+02
3.98681641e+01	-1.37476682e+02
3.98925781e+01	-1.34347950e+02
3.99169922e+01	-1.32409358e+02
3.99414062e+01	-1.36412488e+02
3.99658203e+01	-1.40847720e+02
3.99902344e+01	-1.43222072e+02
4.00146484e+01	-1.46125456e+02
4.00390625e+01	-1.39851384e+02
4.00634766e+01	-1.40611775e+02
4.00878906e+01	-1.40198454e+02
4.01123047e+01	-1.43938294e+02
4.01367188e+01	-1.37120112e+02
4.01611328e+01	-1.35257879e+02
4.01855469e+01	-1.37502726e+02
4.02099609e+01	-1.40470937e+02
4.02343750e+01	-1.37106923e+02
4.02587891e+01	-1.38345534e+02
4.02832031e+01	-1.40052179e+02
4.03076172e+01	-1.39383816e+02
4.03320312e+01	-1.38049039e+02
4.03564453e+01	-1.35836647e+02
4.03808594e+01	-1.38719025e+02
4.04052734e+01	-1.39869080e+02
4.04296875e+01	-1.38142912e+02
4.04541016e+01	-1.35240750e+02
4.04785156e+01	-1.35350479e+02
4.05029297e+01	-1.34191222e+02
4.05273438e+01	-1.35295963e+02
4.05517578e+01	-1.35476783e+02
4.05761719e+01	-1.33944059e+02
4.06005859e+01	-1.37793599e+02
4.06250000e+01	-1.44981279e+02
4.06494141e+01	-1.41915452e+02
4.06738281e+01	-1.42652014e+02
4.06982422e+01	-1.39611345e+02
4.07226562e+01	-1.40949295e+02
4.07470703e+01	-1.42695903e+02
4.07714844e+01	-1.39782674e+02
4.07958984e+01	-1.37765266e+02
4.08203125e+01	-1.42417407e+02
4.08447266e+01	-1.40147278e+02
4.08691406e+01	-1.40424315e+02
4.08935547e+01	-1.39118991e+02
4.09179688e+01	-1.36515894e+02
4.09423828e+01	-1.39245933e+02
4.09667969e+01	-1.40298055e+02
4.09912109e+01	-1.36715983e+02
4.10156250e+01	-1.39204912e+02
4.10400391e+01	-1.44236387e+02
4.10644531e+01	-1.40277345e+02
4.10888672e+01	-1.39644023e+02
4.11132812e+01	-1.42656275e+02
4.11376953e+01	-1.38524552e+02
4.11621094e+01	-1.37396871e+02
4.11865234e+01	-1.39214492e+02
4.12109375e+01	-1.34413134e+02
4.12353516e+01	-1.33465113e+02
4.12597656e+01	-1.37633150e+02
4.12841797e+01	-1.39217894e+02
4.13085938e+01	-1.41196529e+02
4.13330078e+01	-1.40727286e+02
4.13574219e+01	-1.36693714e+02
4.13818359e+01	-1.32383469e+02
4.14062500e+01	-1.35007643e+02
4.14306641e+01	-1.43817250e+02
4.14550781e+01	-1.40835260e+02
4.14794922e+01	-1.40176152e+02
4.15039062e+01	-1.41597797e+02
4.15283203e+01	-1.42769375e+02
4.15527344e+01	-1.44239087e+02
4.15771484e+01	-1.42381180e+02
4.16015625e+01	-1.37237960e+02
4.16259766e+01	-1.36545538e+02
4.16503906e+01	-1.34923377e+02
4.16748047e+01	-1.35263996e+02
4.16992188e+01	-1.36620670e+02
4.17236328e+01	-1.39443659e+02
4.17480469e+01	-1.39688159e+02
4.17724609e+01	-1.39558342e+02
4.17968750e+01	-1.37957657e+02
4.18212891e+01	-1.38522218e+02
4.18457031e+01	-1.36431442e+02
4.18701172e+01	-1.39505855e+02
4.18945312e+01	-1.37224734e+02
4.19189453e+01	-1.37781263e+02
4.19433594e+01	-1.42559358e+02
4.19677734e+01	-1.48562632e+02
4.19921875e+01	-1.41739431e+02
4.20166016e+01	-1.35734562e+02
4.20410156e+01	-1.35002877e+02
4.20654297e+01	-1.37285974e+02
4.20898438e+01	-1.35522649e+02
4.21142578e+01	-1.36280262e+02
4.21386719e+01	-1.37804217e+02
4.21630859e+01	-1.39550287e+02
4.21875000e+01	-1.39450046e+02
4.22119141e+01	-1.40483366e+02
4.22363281e+01	-1.44124223e+02
4.22607422e+01	-1.41921404e+02
4.22851562e+01	-1.39225255e+02
4.23095703e+01	-1.36410679e+02
4.23339844e+01	-1.36892685e+02
4.23583984e+01	-1.39687432e+02
4.23828125e+01	-1.38750891e+02
4.24072266e+01	-1.41453164e+02
4.24316406e+01	-1.41071866e+02
4.24560547e+01	-1.44789124e+02
4.24804688e+01	-1.39442202e+02
4.25048828e+01	-1.38098655e+02
4.25292969e+01	-1.35092528e+02
4.25537109e+01	-1.34485550e+02
4.25781250e+01	-1.40918735e+02
4.26025391e+01	-1.37248310e+02
4.26269531e+01	-1.36505018e+02
4.26513672e+01	-1.41588930e+02
4.26757812e+01	-1.43447579e+02
4.27001953e+01	-1.39499263e+02
4.27246094e+01	-1.40611371e+02
4.27490234e+01	-1.39211853e+02
4.27734375e+01	-1.38695343e+02
4.27978516e+01	-1.41194120e+02
4.28222656e+01	-1.44262246e+02
4.28466797e+01	-1.38818770e+02
4.28710938e+01	-1.39683356e+02
4.28955078e+01	-1.41583974e+02
4.29199219e+01	-1.41599211e+02
4.29443359e+01	-1.35138226e+02
4.29687500e+01	-1.37372153e+02
4.29931641e+01	-1.39476086e+02
4.30175781e+01	-1.43212420e+02
4.30419922e+01	-1.40793437e+02
4.30664062e+01	-1.38539567e+02
4.30908203e+01	-1.39103076e+02
4.31152344e+01	-1.39598946e+02
4.31396484e+01	-1.35120605e+02
4.31640625e+01	-1.34457976e+02
4.31884766e+01	-1.40372222e+02
4.32128906e+01	-1.37698777e+02
4.32373047e+01	-1.40820452e+02
4.32617188e+01	-1.44560725e+02
4.32861328e+01	-1.45251569e+02
4.33105469e+01	-1.43415290e+02
4.33349609e+01	-1.38956495e+02
4.33593750e+01	-1.37573811e+02
4.33837891e+01	-1.39396677e+02
4.34082031e+01	-1.39414209e+02
4.34326172e+01	-1.33806455e+02
4.34570312e+01	-1.36718715e+02
4.34814453e+01	-1.36895160e+02
4.35058594e+01	-1.39597232e+02
4.35302734e+01	-1.42809734e+02
4.35546875e+01	-1.36445287e+02
4.35791016e+01	-1.33333726e+02
4.36035156e+01	-1.36235935e+02
4.36279297e+01	-1.39584133e+02
4.36523438e+01	-1.37509121e+02
4.36767578e+01	-1.38486850e+02
4.37011719e+01	-1.38678671e+02
4.37255859e+01	-1.40074837e+02
4.37500000e+01	-1.41201301e+02
4.37744141e+01	-1.41012676e+02
4.37988281e+01	-1.43343238e+02
4.38232422e+01	-1.40200565e+02
4.38476562e+01	-1.36190552e+02
4.38720703e+01	-1.35088447e+02
4.38964844e+01	-1.37750477e+02
4.39208984e+01	-1.41146070e+02
4.39453125e+01	-1.41706043e+02
4.39697266e+01	-1.42888351e+02
4.39941406e+01	-1.35018084e+02
4.40185547e+01	-1.31730076e+02
4.40429688e+01	-1.33294045e+02
4.40673828e+01	-1.41448449e+02
4.40917969e+01	-1.42612230e+02
4.41162109e+01	-1.38361347e+02
4.41406250e+01	-1.39351111e+02
4.41650391e+01	-1.40135181e+02
4.41894531e+01	-1.39433467e+02
4.42138672e+01	-1.41684173e+02
4.42382812e+01	-1.38852767e+02
4.42626953e+01	-1.38264877e+02
4.42871094e+01	-1.39557951e+02
4.43115234e+01	-1.36163011e+02
4.43359375e+01	-1.37297321e+02
4.43603516e+01	-1.42213835e+02
4.43847656e+01	-1.39610019e+02
4.44091797e+01	-1.41290907e+02
4.44335938e+01	-1.36012366e+02
4.44580078e+01	-1.35831435e+02
4.44824219e+01	-1.39440493e+02
4.45068359e+01	-1.35815666e+02
4.45312500e+01	-1.32297108e+02
4.45556641e+01	-1.33766578e+02
4.45800781e+01	-1.37050291e+02
4.46044922e+01	-1.38380124e+02
4.46289062e+01	-1.35970824e+02
4.46533203e+01	-1.36975996e+02
4.46777344e+01	-1.34913364e+02
4.47021484e+01	-1.33235527e+02
4.47265625e+01	-1.33436772e+02
4.47509766e+01	-1.33169493e+02
4.47753906e+01	-1.37296903e+02
4.47998047e+01	-1.36675040e+02
4.48242188e+01	-1.36689483e+02
4.48486328e+01	-1.33153509e+02
4.48730469e+01	-1.33933317e+02
4.48974609e+01	-1.35175536e+02
4.49218750e+01	-1.31730861e+02
4.49462891e+01	-1.33939799e+02
4.49707031e+01	-1.29434164e+02
4.49951172e+01	-1.32104957e+02
4.50195312e+01	-1.35832006e+02
4.50439453e+01	-1.40833592e+02
4.50683594e+01	-1.37129444e+02
4.50927734e+01	-1.33226525e+02
4.51171875e+01	-1.31531015e+02
4.51416016e+01	-1.29437804e+02
4.51660156e+01	-1.31763716e+02
4.51904297e+01	-1.29114335e+02
4.52148438e+01	-1.31371765e+02
4.52392578e+01	-1.34276453e+02
4.52636719e+01	-1.38822108e+02
4.52880859e+01	-1.39651207e+02
4.53125000e+01	-1.34885777e+02
4.53369141e+01	-1.34599675e+02
4.53613281e+01	-1.34641837e+02
4.53857422e+01	-1.36330774e+02
4.54101562e+01	-1.35653865e+02
4.54345703e+01	-1.37548475e+02
4.54589844e+01	-1.37711896e+02
4.54833984e+01	-1.38247388e+02
4.55078125e+01	-1.42551165e+02
4.55322266e+01	-1.39597469e+02
4.55566406e+01	-1.33882445e+02
4.55810547e+01	-1.32853216e+02
4.56054688e+01	-1.33806646e+02
4.56298828e+01	-1.30870823e+02
4.56542969e+01	-1.31762840e+02
4.56787109e+01	-1.35343463e+02
4.57031250e+01	-1.33824654e+02
4.57275391e+01	-1.37636480e+02
4.57519531e+01	-1.39536025e+02
4.57763672e+01	-1.35383088e+02
4.58007812e+01	-1.33426915e+02
4.58251953e+01	-1.31031859e+02
4.58496094e+01	-1.28937206e+02
4.58740234e+01	-1.31262115e+02
4.58984375e+01	-1.37383468e+02
4.59228516e+01	-1.35940966e+02
4.59472656e+01	-1.35851196e+02
4.59716797e+01	-1.38917207e+02
4.59960938e+01	-1.38697501e+02
4.60205078e+01	-1.34977574e+02
4.60449219e+01	-1.39226420e+02
4.60693359e+01	-1.40766226e+02
4.60937500e+01	-1.38532928e+02
4.61181641e+01	-1.38674984e+02
4.61425781e+01	-1.36399846e+02
4.61669922e+01	-1.36052759e+02
4.61914062e+01	-1.34275874e+02
4.62158203e+01	-1.31593472e+02
4.62402344e+01	-1.31535792e+02
4.62646484e+01	-1.33290637e+02
4.62890625e+01	-1.28317504e+02
4.63134766e+01	-1.29141489e+02
4.63378906e+01	-1.36126358e+02
4.63623047e+01	-1.34764386e+02
4.63867188e+01	-1.33504975e+02
4.64111328e+01	-1.37087183e+02
4.64355469e+01	-1.33180753e+02
4.64599609e+01	-1.35782370e+02
4.64843750e+01	-1.40445397e+02
4.65087891e+01	-1.33371307e+02
4.65332031e+01	-1.34570032e+02
4.65576172e+01	-1.38261604e+02
4.65820312e+01	-1.36564475e+02
4.66064453e+01	-1.30981492e+02
4.66308594e+01	-1.33498082e+02
4.66552734e+01	-1.34240991e+02
4.66796875e+01	-1.32761208e+02
4.67041016e+01	-1.35525479e+02
4.67285156e+01	-1.37817671e+02
4.67529297e+01	-1.36999641e+02
4.67773438e+01	-1.37944774e+02
4.68017578e+01	-1.38363209e+02
4.68261719e+01	-1.33929986e+02
4.68505859e+01	-1.34538964e+02
4.68750000e+01	-1.36884863e+02
4.68994141e+01	-1.35783936e+02
4.69238281e+01	-1.35174056e+02
4.69482422e+01	-1.33340682e+02
4.69726562e+01	-1.34975305e+02
4.69970703e+01	-1.37887020e+02
4.70214844e+01	-1.37905025e+02
4.70458984e+01	-1.36524981e+02
4.70703125e+01	-1.37150645e+02
4.70947266e+01	-1.37038267e+02
4.71191406e+01	-1.34693795e+02
4.71435547e+01	-1.32703890e+02
4.71679688e+01	-1.31422585e+02
4.71923828e+01	-1.37417990e+02
4.72167969e+01	-1.40628191e+02
4.72412109e+01	-1.40690780e+02
4.72656250e+01	-1.35241522e+02
4.72900391e+01	-1.33945119e+02
4.73144531e+01	-1.34461942e+02
4.73388672e+01	-1.32075635e+02
4.73632812e+01	-1.32195891e+02
4.73876953e+01	-1.30907889e+02
4.74121094e+01	-1.34046669e+02
4.74365234e+01	-1.40763176e+02
4.74609375e+01	-1.46035717e+02
4.74853516e+01	-1.39396315e+02
4.75097656e+01	-1.37638083e+02
4.75341797e+01	-1.37696199e+02
4.75585938e+01	-1.33973748e+02
4.75830078e+01	-1.32556472e+02
4.76074219e+01	-1.30577896e+02
4.76318359e+01	-1.35848550e+02
4.76562500e+01	-1.41338561e+02
4.76806641e+01	-1.39983074e+02
4.77050781e+01	-1.34792068e+02
4.77294922e+01	-1.34664475e+02
4.77539062e+01	-1.34887061e+02
4.77783203e+01	-1.33316875e+02
4.78027344e+01	-1.35996435e+02
4.78271484e+01	-1.42831667e+02
4.78515625e+01	-1.43890172e+02
4.78759766e+01	-1.45958395e+02
4.79003906e+01	-1.43441494e+02
4.79248047e+01	-1.37720434e+02
4.79492188e+01	-1.38772398e+02
4.79736328e+01	-1.37661510e+02
4.79980469e+01	-1.37729291e+02
4.80224609e+01	-1.40373344e+02
4.80468750e+01	-1.37920147e+02
4.80712891e+01	-1.38243782e+02
4.80957031e+01	-1.41557661e+02
4.81201172e+01	-1.40475242e+02
4.81445312e+01	-1.47618135e+02
4.81689453e+01	-1.40723529e+02
4.81933594e+01	-1.39279948e+02
4.82177734e+01	-1.34806020e+02
4.82421875e+01	-1.39410120e+02
4.82666016e+01	-1.41345038e+02
4.82910156e+01	-1.41091365e+02
4.83154297e+01	-1.42994296e+02
4.83398438e+01	-1.44281257e+02
4.83642578e+01	-1.40923589e+02
4.83886719e+01	-1.36128876e+02