# f [Hz] vs PSD(f) [PaPa_Hz]
# Lower frequency: 2.50000000e+01
# Upper frequency: 1.00000000e+04
# Window model  : Hanning
# Window number : 3
# Window samples: 4096
# Window overlap %: 5.00000000e+01
# dBRef         : 2.00000000e-05
# f             	PSD(f)          
2.50000000e+01	2.63510643e-24
2.50244141e+01	6.23343671e-24
2.50488281e+01	8.54334500e-24
2.50732422e+01	4.60130205e-24
2.50976562e+01	1.92030856e-23
2.51220703e+01	1.90586430e-23
2.51464844e+01	1.25820697e-23
2.51708984e+01	3.04698714e-23
2.51953125e+01	2.31818226e-23
2.52197266e+01	7.94646543e-24
2.52441406e+01	6.15408276e-24
2.52685547e+01	9.38560245e-24
2.52929688e+01	6.02410803e-24
2.53173828e+01	2.68995414e-24
2.53417969e+01	5.45408383e-24
2.53662109e+01	4.30727632e-23
2.53906250e+01	6.42934600e-23
2.54150391e+01	1.96178115e-23
2.54394531e+01	9.38655846e-24
2.54638672e+01	7.02101409e-24
2.54882812e+01	1.01071001e-23
2.55126953e+01	8.06806949e-24
2.55371094e+01	6.44444209e-24
2.55615234e+01	1.24541561e-23
2.55859375e+01	1.19149396e-23
2.56103516e+01	1.46241250e-23
2.56347656e+01	6.61845015e-24
2.56591797e+01	6.20276740e-24
2.56835938e+01	6.79392315e-24
2.57080078e+01	1.32832380e-23
2.57324219e+01	2.25879673e-23
2.57568359e+01	2.26457108e-23
2.57812500e+01	3.51266690e-23
2.58056641e+01	3.43532523e-23
2.58300781e+01	2.34725430e-23
2.58544922e+01	1.64777573e-23
2.58789062e+01	1.23755118e-23
2.59033203e+01	9.69583360e-24
2.59277344e+01	7.79076665e-24
2.59521484e+01	4.72811321e-24
2.59765625e+01	1.95260831e-24
2.60009766e+01	7.24486592e-25
2.60253906e+01	1.12731257e-23
2.60498047e+01	3.69475280e-23
2.60742188e+01	2.32318259e-23
2.60986328e+01	2.27900016e-24
2.61230469e+01	4.24736585e-24
2.61474609e+01	6.41402211e-24
2.61718750e+01	4.23666729e-24
2.61962891e+01	3.78827081e-24
2.62207031e+01	7.72620790e-24
2.62451172e+01	1.93431703e-23
2.62695312e+01	3.59406040e-23
2.62939453e+01	2.56278595e-23
2.63183594e+01	7.38799648e-24
2.63427734e+01	5.31633122e-24
2.63671875e+01	6.51076747e-24
2.63916016e+01	6.44262440e-24
2.64160156e+01	1.37289159e-23
2.64404297e+01	2.65764801e-23
2.64648438e+01	1.29150747e-23
2.64892578e+01	3.73470741e-23
2.65136719e+01	4.40348516e-23
2.65380859e+01	1.12673702e-23
2.65625000e+01	7.91824625e-24
2.65869141e+01	1.06814717e-23
2.66113281e+01	1.46002059e-23
2.66357422e+01	5.19525255e-24
2.66601562e+01	2.79111973e-24
2.66845703e+01	1.15953485e-23
2.67089844e+01	6.95294174e-23
2.67333984e+01	3.82353453e-23
2.67578125e+01	1.77040729e-24
2.67822266e+01	2.53313553e-24
2.68066406e+01	9.02921834e-24
2.68310547e+01	4.93126096e-24
2.68554688e+01	2.10703618e-24
2.68798828e+01	5.55611193e-24
2.69042969e+01	4.71406592e-23
2.69287109e+01	6.97027925e-23
2.69531250e+01	8.11812070e-24
2.69775391e+01	7.29645092e-24
2.70019531e+01	6.51187767e-24
2.70263672e+01	5.12574436e-24
2.70507812e+01	1.23524741e-23
2.70751953e+01	1.79635494e-23
2.70996094e+01	3.41747377e-23
2.71240234e+01	1.19648372e-23
2.71484375e+01	5.56768408e-23
2.71728516e+01	4.15907546e-23
2.71972656e+01	8.39544433e-24
2.72216797e+01	8.98000374e-24
2.72460938e+01	1.19002827e-23
2.72705078e+01	7.01947376e-24
2.72949219e+01	5.65593934e-24
2.73193359e+01	1.16547027e-23
2.73437500e+01	1.54307719e-23
2.73681641e+01	1.56676095e-23
2.73925781e+01	1.01592726e-23
2.74169922e+01	5.69896589e-24
2.74414062e+01	6.39631243e-24
2.74658203e+01	8.45789556e-24
2.74902344e+01	8.54919996e-24
2.75146484e+01	8.52697919e-24
2.75390625e+01	1.65688381e-23
2.75634766e+01	9.18128779e-24
2.75878906e+01	4.72579925e-23
2.76123047e+01	3.38630115e-23
2.76367188e+01	3.58047455e-24
2.76611328e+01	2.75014180e-24
2.76855469e+01	6.75411518e-24
2.77099609e+01	7.23568545e-24
2.77343750e+01	4.36173459e-24
2.77587891e+01	7.12393492e-24
2.77832031e+01	8.72722031e-24
2.78076172e+01	2.47372561e-23
2.78320312e+01	2.89931943e-23
2.78564453e+01	9.64669838e-24
2.78808594e+01	1.06604878e-23
2.79052734e+01	1.06501224e-23
2.79296875e+01	8.95198143e-24
2.79541016e+01	1.05972354e-23
2.79785156e+01	1.65460393e-23
2.80029297e+01	2.33493265e-23
2.80273438e+01	1.83640433e-23
2.80517578e+01	2.39869420e-23
2.80761719e+01	7.76759956e-24
2.81005859e+01	3.22495761e-24
2.81250000e+01	1.70112157e-23
2.81494141e+01	1.29198885e-23
2.81738281e+01	3.95102083e-24
2.81982422e+01	1.68611719e-24
2.82226562e+01	2.29871622e-24
2.82470703e+01	1.28518233e-23
2.82714844e+01	1.08572142e-23
2.82958984e+01	5.12844031e-24
2.83203125e+01	3.26200717e-24
2.83447266e+01	6.85979957e-24
2.83691406e+01	4.78747417e-24
2.83935547e+01	7.65622824e-24
2.84179688e+01	1.01942368e-23
2.84423828e+01	2.96054650e-24
2.84667969e+01	2.43783820e-23
2.84912109e+01	4.37601748e-23
2.85156250e+01	1.78938847e-23
2.85400391e+01	8.47359169e-24
2.85644531e+01	6.04906358e-24
2.85888672e+01	3.88278209e-24
2.86132812e+01	7.80896927e-24
2.86376953e+01	1.41302346e-23
2.86621094e+01	1.55635966e-23
2.86865234e+01	3.13621546e-23
2.87109375e+01	2.42452758e-23
2.87353516e+01	3.22237314e-24
2.87597656e+01	3.07689265e-24
2.87841797e+01	7.44322079e-24
2.88085938e+01	6.87734432e-24
2.88330078e+01	8.31150775e-24
2.88574219e+01	1.12021176e-23
2.88818359e+01	6.40081590e-24
2.89062500e+01	3.39078958e-24
2.89306641e+01	3.77894672e-24
2.89550781e+01	2.38927172e-24
2.89794922e+01	4.80090594e-24
2.90039062e+01	1.47520710e-23
2.90283203e+01	1.12557084e-23
2.90527344e+01	4.20859230e-24
2.90771484e+01	4.15289354e-24
2.91015625e+01	5.24592774e-24
2.91259766e+01	6.47088215e-24
2.91503906e+01	4.14543508e-24
2.91748047e+01	1.82095679e-24
2.91992188e+01	2.18995165e-24
2.92236328e+01	3.68076293e-24
2.92480469e+01	6.28517542e-24
2.92724609e+01	2.37041651e-24
2.92968750e+01	1.80881635e-24
2.93212891e+01	9.06444227e-24
2.93457031e+01	1.38309234e-23
2.93701172e+01	1.01045291e-23
2.93945312e+01	4.27607381e-24
2.94189453e+01	2.46532326e-24
2.94433594e+01	2.13504194e-24
2.94677734e+01	2.64934993e-24
2.94921875e+01	1.41660108e-24
2.95166016e+01	4.96759868e-24
2.95410156e+01	1.13675945e-23
2.95654297e+01	5.02557124e-24
2.95898438e+01	8.34111180e-24
2.96142578e+01	4.13837747e-24
2.96386719e+01	3.36904631e-24
2.96630859e+01	4.14281631e-24
2.96875000e+01	5.96227097e-24
2.97119141e+01	8.18046051e-24
2.97363281e+01	6.18876194e-24
2.97607422e+01	2.02994793e-24
2.97851562e+01	2.08810984e-24
2.98095703e+01	4.53382665e-24
2.98339844e+01	5.37353906e-24
2.98583984e+01	2.44686111e-24
2.98828125e+01	1.67845540e-24
2.99072266e+01	8.39638904e-24
2.99316406e+01	1.49886629e-23
2.99560547e+01	8.47699463e-24
2.99804688e+01	4.61791691e-24
3.00048828e+01	2.51262328e-23
3.00292969e+01	2.05747676e-23
3.00537109e+01	4.90621154e-24
3.00781250e+01	9.98224917e-24
3.01025391e+01	1.17563587e-23
3.01269531e+01	1.37044424e-23
3.01513672e+01	7.04511285e-24
3.01757812e+01	9.33542237e-24
3.02001953e+01	6.24963825e-24
3.02246094e+01	5.81392611e-24
3.02490234e+01	2.97750471e-24
3.02734375e+01	1.48389753e-24
3.02978516e+01	1.94189356e-24
3.03222656e+01	2.55692787e-24
3.03466797e+01	2.51623288e-24
3.03710938e+01	5.23298972e-24
3.03955078e+01	6.43248739e-24
3.04199219e+01	6.14935027e-24
3.04443359e+01	1.58680262e-23
3.04687500e+01	2.07640790e-23
3.04931641e+01	9.99847917e-24
3.05175781e+01	7.27230782e-24
3.05419922e+01	5.68846869e-24
3.05664062e+01	5.33412186e-24
3.05908203e+01	2.13644746e-24
3.06152344e+01	4.48278923e-24
3.06396484e+01	2.56528216e-24
3.06640625e+01	2.54620510e-23
3.06884766e+01	3.35879006e-23
3.07128906e+01	1.59257417e-23
3.07373047e+01	9.08041246e-24
3.07617188e+01	2.26124505e-24
3.07861328e+01	1.00365296e-23
3.08105469e+01	7.65733208e-24
3.08349609e+01	3.56346286e-24
3.08593750e+01	4.24949759e-24
3.08837891e+01	1.29682936e-23
3.09082031e+01	2.83894291e-23
3.09326172e+01	6.29676476e-24
3.09570312e+01	2.38428790e-24
3.09814453e+01	1.80325545e-24
3.10058594e+01	8.10910218e-24
3.10302734e+01	5.22577347e-24
3.10546875e+01	9.23067564e-24
3.10791016e+01	1.08042144e-23
3.11035156e+01	1.44612626e-23
3.11279297e+01	8.72401017e-24
3.11523438e+01	2.26638969e-24
3.11767578e+01	1.43989870e-24
3.12011719e+01	5.23848859e-24
3.12255859e+01	9.25329305e-24
3.12500000e+01	1.42530720e-23
3.12744141e+01	2.10303723e-23
3.12988281e+01	2.53819549e-23
3.13232422e+01	9.39085619e-24
3.13476562e+01	5.06055316e-24
3.13720703e+01	9.56799142e-24
3.13964844e+01	1.27513639e-23
3.14208984e+01	1.52126632e-23
3.14453125e+01	1.81756888e-23
3.14697266e+01	1.55471327e-23
3.14941406e+01	2.94749478e-23
3.15185547e+01	4.00168072e-23
3.15429688e+01	1.10281590e-23
3.15673828e+01	7.30896344e-24
3.15917969e+01	2.81710703e-24
3.16162109e+01	3.07664998e-24
3.16406250e+01	4.82532933e-24
3.16650391e+01	4.12360946e-24
3.16894531e+01	2.20901336e-24
3.17138672e+01	6.13673368e-24
3.17382812e+01	1.59691672e-23
3.17626953e+01	1.56462188e-23
3.17871094e+01	2.26399301e-23
3.18115234e+01	1.07956961e-23
3.18359375e+01	6.75132170e-24
3.18603516e+01	3.61037578e-24
3.18847656e+01	2.04446869e-23
3.19091797e+01	2.11811776e-23
3.19335938e+01	1.56466052e-23
3.19580078e+01	1.45575163e-23
3.19824219e+01	2.38046445e-23
3.20068359e+01	3.40138651e-23
3.20312500e+01	1.22588796e-23
3.20556641e+01	8.98696496e-24
3.20800781e+01	6.83052265e-24
3.21044922e+01	7.13903023e-24
3.21289062e+01	7.77416243e-24
3.21533203e+01	1.02438676e-23
3.21777344e+01	1.65241327e-23
3.22021484e+01	5.45033729e-23
3.22265625e+01	7.64957670e-23
3.22509766e+01	1.13116394e-23
3.22753906e+01	1.80975993e-23
3.22998047e+01	2.41544529e-23
3.23242188e+01	4.33653686e-23
3.23486328e+01	2.48587355e-23
3.23730469e+01	1.43775925e-23
3.23974609e+01	8.29929917e-23
3.24218750e+01	1.05002584e-22
3.24462891e+01	1.31065254e-22
3.24707031e+01	5.04308886e-23
3.24951172e+01	3.69170903e-23
3.25195312e+01	4.86834077e-23
3.25439453e+01	3.58859506e-23
3.25683594e+01	5.89123973e-23
3.25927734e+01	3.70469892e-23
3.26171875e+01	5.26524582e-23
3.26416016e+01	8.45497824e-23
3.26660156e+01	1.13219670e-22
3.26904297e+01	3.24224502e-23
3.27148438e+01	2.22366254e-23
3.27392578e+01	3.33057923e-23
3.27636719e+01	3.52935707e-23
3.27880859e+01	2.38095502e-23
3.28125000e+01	2.20877724e-23
3.28369141e+01	4.53545455e-23
3.28613281e+01	8.88574502e-23
3.28857422e+01	9.51905068e-23
3.29101562e+01	1.74639985e-23
3.29345703e+01	7.23632073e-24
3.29589844e+01	8.14814145e-24
3.29833984e+01	6.85850532e-24
3.30078125e+01	9.00039447e-24
3.30322266e+01	8.57813477e-24
3.30566406e+01	9.89662536e-24
3.30810547e+01	1.31775091e-23
3.31054688e+01	7.36580297e-24
3.31298828e+01	8.91254444e-24
3.31542969e+01	7.89046418e-24
3.31787109e+01	1.39871071e-23
3.32031250e+01	1.25937126e-23
3.32275391e+01	3.27825811e-24
3.32519531e+01	3.00080731e-23
3.32763672e+01	2.08646200e-23
3.33007812e+01	1.94077150e-23
3.33251953e+01	1.77515182e-23
3.33496094e+01	6.45623113e-24
3.33740234e+01	8.04039190e-24
3.33984375e+01	1.74827476e-23
3.34228516e+01	1.22045722e-23
3.34472656e+01	6.68602301e-24
3.34716797e+01	2.80525691e-23
3.34960938e+01	3.89448751e-23
3.35205078e+01	6.31356080e-23
3.35449219e+01	5.35554199e-23
3.35693359e+01	1.25953295e-23
3.35937500e+01	9.52596184e-24
3.36181641e+01	2.28359258e-23
3.36425781e+01	2.19430385e-23
3.36669922e+01	1.33798384e-23
3.36914062e+01	2.56973962e-23
3.37158203e+01	7.51044999e-23
3.37402344e+01	1.76256461e-22
3.37646484e+01	1.65592676e-22
3.37890625e+01	2.16049854e-23
3.38134766e+01	5.43997777e-24
3.38378906e+01	2.34746545e-23
3.38623047e+01	2.58402212e-23
3.38867188e+01	2.28003609e-23
3.39111328e+01	2.68092769e-23
3.39355469e+01	4.19810816e-23
3.39599609e+01	1.36078351e-22
3.39843750e+01	1.42520560e-22
3.40087891e+01	2.16018505e-23
3.40332031e+01	4.40163683e-24
3.40576172e+01	4.49409355e-24
3.40820312e+01	6.59455788e-24
3.41064453e+01	4.80011644e-24
3.41308594e+01	1.08313986e-23
3.41552734e+01	1.68278449e-23
3.41796875e+01	1.36702988e-23
3.42041016e+01	1.63341160e-23
3.42285156e+01	6.69452391e-24
3.42529297e+01	2.18910022e-23
3.42773438e+01	2.54643942e-23
3.43017578e+01	1.20537515e-23
3.43261719e+01	2.04704337e-23
3.43505859e+01	2.78196539e-23
3.43750000e+01	2.74756635e-23
3.43994141e+01	3.91369330e-23
3.44238281e+01	3.12740390e-23
3.44482422e+01	5.27548845e-24
3.44726562e+01	1.97473845e-24
3.44970703e+01	3.07848290e-24
3.45214844e+01	2.27639355e-24
3.45458984e+01	4.74006916e-24
3.45703125e+01	1.71654055e-23
3.45947266e+01	1.95369112e-23
3.46191406e+01	2.25564301e-23
3.46435547e+01	1.26519915e-23
3.46679688e+01	2.02765351e-24
3.46923828e+01	2.54933836e-24
3.47167969e+01	3.77279045e-24
3.47412109e+01	8.32213634e-25
3.47656250e+01	2.19848729e-24
3.47900391e+01	9.78220823e-24
3.48144531e+01	1.35318015e-23
3.48388672e+01	2.68390965e-24
3.48632812e+01	1.23719604e-23
3.48876953e+01	1.28469299e-23
3.49121094e+01	5.86816643e-24
3.49365234e+01	2.21366433e-23
3.49609375e+01	2.26040683e-23
3.49853516e+01	1.41359970e-23
3.50097656e+01	1.08491398e-23
3.50341797e+01	9.42280068e-24
3.50585938e+01	1.53809995e-23
3.50830078e+01	3.70381923e-24
3.51074219e+01	1.70760711e-24
3.51318359e+01	6.11332048e-24
3.51562500e+01	1.54122392e-23
3.51806641e+01	1.68560025e-23
3.52050781e+01	1.31075787e-23
3.52294922e+01	1.02078754e-23
3.52539062e+01	7.92659376e-24
3.52783203e+01	2.02477414e-23
3.53027344e+01	2.41808055e-23
3.53271484e+01	4.81922441e-24
3.53515625e+01	1.99562511e-24
3.53759766e+01	4.48741754e-24
3.54003906e+01	9.54031460e-24
3.54248047e+01	1.59081343e-23
3.54492188e+01	9.95492189e-24
3.54736328e+01	1.01517840e-23
3.54980469e+01	1.02233984e-23
3.55224609e+01	1.02038522e-23
3.55468750e+01	3.68810374e-24
3.55712891e+01	2.74403340e-24
3.55957031e+01	4.74736815e-24
3.56201172e+01	3.09832666e-24
3.56445312e+01	4.63027228e-24
3.56689453e+01	5.86742155e-24
3.56933594e+01	1.49246074e-23
3.57177734e+01	1.24041665e-23
3.57421875e+01	5.23421250e-24
3.57666016e+01	1.94040296e-24
3.57910156e+01	1.22181658e-24
3.58154297e+01	4.12864061e-24
3.58398438e+01	3.29094465e-24
3.58642578e+01	3.51218844e-24
3.58886719e+01	4.06430858e-24
3.59130859e+01	1.28989072e-23
3.59375000e+01	3.31894406e-23
3.59619141e+01	3.62796108e-23
3.59863281e+01	1.45486038e-23
3.60107422e+01	2.32772344e-24
3.60351562e+01	2.37509039e-24
3.60595703e+01	9.82329396e-24
3.60839844e+01	6.18640227e-24
3.61083984e+01	2.62080844e-24
3.61328125e+01	6.29468936e-24
3.61572266e+01	2.31142413e-23
3.61816406e+01	1.93217891e-23
3.62060547e+01	6.87959095e-24
3.62304688e+01	7.02601848e-24
3.62548828e+01	7.29061388e-24
3.62792969e+01	3.04282359e-24
3.63037109e+01	3.50830090e-24
3.63281250e+01	8.44889483e-24
3.63525391e+01	1.75047673e-23
3.63769531e+01	4.19363960e-23
3.64013672e+01	4.80850172e-23
3.64257812e+01	1.77191151e-23
3.64501953e+01	2.88906267e-24
3.64746094e+01	2.86425520e-24
3.64990234e+01	4.23571241e-24
3.65234375e+01	2.92299852e-24
3.65478516e+01	3.27318810e-24
3.65722656e+01	9.61958938e-24
3.65966797e+01	1.05932982e-23
3.66210938e+01	4.74560432e-24
3.66455078e+01	1.13930568e-23
3.66699219e+01	1.98138037e-23
3.66943359e+01	4.98472721e-24
3.67187500e+01	8.90645362e-24
3.67431641e+01	9.38754454e-24
3.67675781e+01	1.55042983e-23
3.67919922e+01	2.29769676e-23
3.68164062e+01	2.53923590e-23
3.68408203e+01	2.66994449e-23
3.68652344e+01	1.12499254e-23
3.68896484e+01	5.59466277e-24
3.69140625e+01	2.36874481e-24
3.69384766e+01	3.90075105e-24
3.69628906e+01	2.35760794e-24
3.69873047e+01	1.58339326e-23
3.70117188e+01	3.11082723e-23
3.70361328e+01	1.60379495e-23
3.70605469e+01	1.37152985e-23
3.70849609e+01	9.19168920e-24
3.71093750e+01	9.42640405e-24
3.71337891e+01	6.06612435e-24
3.71582031e+01	2.16843850e-24
3.71826172e+01	4.11041114e-24
3.72070312e+01	6.55190467e-24
3.72314453e+01	1.65218982e-23
3.72558594e+01	1.43101262e-23
3.72802734e+01	1.88221623e-23
3.73046875e+01	1.65150387e-23
3.73291016e+01	3.81725040e-24
3.73535156e+01	1.23975276e-24
3.73779297e+01	9.67818243e-24
3.74023438e+01	2.82270495e-24
3.74267578e+01	2.74082335e-24
3.74511719e+01	1.15666881e-23
3.74755859e+01	1.52375416e-23
3.75000000e+01	2.08207203e-23
3.75244141e+01	1.10978130e-23
3.75488281e+01	3.99667494e-24
3.75732422e+01	3.80538397e-24
3.75976562e+01	9.41519222e-24
3.76220703e+01	1.60726840e-23
3.76464844e+01	1.71390553e-23
3.76708984e+01	4.20278951e-24
3.76953125e+01	6.51414847e-24
3.77197266e+01	1.81346824e-23
3.77441406e+01	1.28423499e-23
3.77685547e+01	1.91592097e-23
3.77929688e+01	1.81277135e-23
3.78173828e+01	1.35606897e-23
3.78417969e+01	1.23630790e-23
3.78662109e+01	1.09576726e-23
3.78906250e+01	6.72484730e-24
3.79150391e+01	5.16174307e-24
3.79394531e+01	1.67574244e-23
3.79638672e+01	1.13082445e-23
3.79882812e+01	1.39333930e-23
3.80126953e+01	1.54701991e-23
3.80371094e+01	5.38498229e-24
3.80615234e+01	8.64201273e-24
3.80859375e+01	1.76154874e-23
3.81103516e+01	3.59115864e-24
3.81347656e+01	1.56763142e-23
3.81591797e+01	2.79083757e-23
3.81835938e+01	9.12167007e-24
3.82080078e+01	2.74377771e-24
3.82324219e+01	1.85434078e-24
3.82568359e+01	4.04245263e-24
3.82812500e+01	4.90246331e-24
3.83056641e+01	1.24795090e-23
3.83300781e+01	8.64477189e-24
3.83544922e+01	8.42225665e-24
3.83789062e+01	9.29005114e-24
3.84033203e+01	3.03691815e-24
3.84277344e+01	1.77797858e-24
3.84521484e+01	3.72431229e-24
3.84765625e+01	3.05116132e-24
3.85009766e+01	7.62330847e-24
3.85253906e+01	1.49859813e-23
3.85498047e+01	7.40776385e-24
3.85742188e+01	9.57105531e-24
3.85986328e+01	1.79342318e-23
3.86230469e+01	6.33027817e-24
3.86474609e+01	4.94995908e-24
3.86718750e+01	4.77297152e-24
3.86962891e+01	3.82548142e-24
3.87207031e+01	2.63327014e-24
3.87451172e+01	1.80005614e-23
3.87695312e+01	1.66999848e-23
3.87939453e+01	9.54019506e-24
3.88183594e+01	2.20907516e-23
3.88427734e+01	1.52927457e-23
3.88671875e+01	8.72825040e-24
3.88916016e+01	1.57549949e-23
3.89160156e+01	1.41848399e-23
3.89404297e+01	1.35816636e-23
3.89648438e+01	1.98656866e-23
3.89892578e+01	1.76548322e-23
3.90136719e+01	1.62499757e-23
3.90380859e+01	1.72753932e-23
3.90625000e+01	4.62720203e-24
3.90869141e+01	6.59971088e-24
3.91113281e+01	4.03481920e-24
3.91357422e+01	2.80841334e-24
3.91601562e+01	4.69863544e-24
3.91845703e+01	6.78486008e-24
3.92089844e+01	6.62625772e-24
3.92333984e+01	7.22436394e-24
3.92578125e+01	3.42780420e-24
3.92822266e+01	9.51331415e-24
3.93066406e+01	7.93280972e-24
3.93310547e+01	3.30279105e-24
3.93554688e+01	7.53125319e-24
3.93798828e+01	9.03007144e-24
3.94042969e+01	1.33091571e-23
3.94287109e+01	1.36183119e-23
3.94531250e+01	6.24190455e-24
3.94775391e+01	1.31460984e-23
3.95019531e+01	7.35889683e-24
3.95263672e+01	2.97332313e-24
3.95507812e+01	5.02758369e-24
3.95751953e+01	7.60093489e-24
3.95996094e+01	1.30694644e-23
3.96240234e+01	1.83454232e-23
3.96484375e+01	1.07949472e-23
3.96728516e+01	1.58601373e-23
3.96972656e+01	2.98590648e-23
3.97216797e+01	1.38761720e-23
3.97460938e+01	4.55453105e-24
3.97705078e+01	6.45342496e-24
3.97949219e+01	1.06447814e-23
3.98193359e+01	1.41116142e-23
3.98437500e+01	6.65600536e-24
3.98681641e+01	7.15141234e-24
3.98925781e+01	1.46982298e-23
3.99169922e+01	2.29680552e-23
3.99414062e+01	9.13715890e-24
3.99658203e+01	3.29069808e-24
3.99902344e+01	1.90481476e-24
4.00146484e+01	9.76145075e-25
4.00390625e+01	4.13924916e-24
4.00634766e+01	3.47442149e-24
4.00878906e+01	3.82133016e-24
4.01123047e+01	1.61521605e-24
4.01367188e+01	7.76334400e-24
4.01611328e+01	1.19198848e-23
4.01855469e+01	7.10865445e-24
4.02099609e+01	3.58894051e-24
4.02343750e+01	7.78695602e-24
4.02587891e+01	5.85472587e-24
4.02832031e+01	3.95222914e-24
4.03076172e+01	4.60976134e-24
4.03320312e+01	6.26839124e-24
4.03564453e+01	1.04326668e-23
4.03808594e+01	5.37226630e-24
4.04052734e+01	4.12241784e-24
4.04296875e+01	6.13435368e-24
4.04541016e+01	1.19669906e-23
4.04785156e+01	1.16684214e-23
4.05029297e+01	1.52383429e-23
4.05273438e+01	1.18158141e-23
4.05517578e+01	1.13339616e-23
4.05761719e+01	1.61307344e-23
4.06005859e+01	6.64813860e-24
4.06250000e+01	1.27037558e-24
4.06494141e+01	2.57344457e-24
4.06738281e+01	2.17199367e-24
4.06982422e+01	4.37447032e-24
4.07226562e+01	3.21462664e-24
4.07470703e+01	2.15015471e-24
4.07714844e+01	4.20525749e-24
4.07958984e+01	6.69165229e-24
4.08203125e+01	2.29255227e-24
4.08447266e+01	3.86662645e-24
4.08691406e+01	3.62767621e-24
4.08935547e+01	4.89960285e-24
4.09179688e+01	8.92217119e-24
4.09423828e+01	4.75846315e-24
4.09667969e+01	3.73468972e-24
4.09912109e+01	8.52043432e-24
4.10156250e+01	4.80362150e-24
4.10400391e+01	1.50806912e-24
4.10644531e+01	3.75254111e-24
4.10888672e+01	4.34167883e-24
4.11132812e+01	2.16986403e-24
4.11376953e+01	5.61829813e-24
4.11621094e+01	7.28404898e-24
4.11865234e+01	4.79303755e-24
4.12109375e+01	1.44792676e-23
4.12353516e+01	1.80114510e-23
4.12597656e+01	6.89834644e-24
4.12841797e+01	4.78928366e-24
4.13085938e+01	3.03673642e-24
4.13330078e+01	3.38322875e-24
4.13574219e+01	8.56423507e-24
4.13818359e+01	2.31053809e-23
4.14062500e+01	1.26268693e-23
4.14306641e+01	1.66086739e-24
4.14550781e+01	3.30015227e-24
4.14794922e+01	3.84100439e-24
4.15039062e+01	2.76872807e-24
4.15283203e+01	2.11408531e-24
4.15527344e+01	1.50713184e-24
4.15771484e+01	2.31175604e-24
4.16015625e+01	7.55551335e-24
4.16259766e+01	8.86147899e-24
4.16503906e+01	1.28742598e-23
4.16748047e+01	1.19031077e-23
4.16992188e+01	8.70949622e-24
4.17236328e+01	4.54667718e-24
4.17480469e+01	4.29777913e-24
4.17724609e+01	4.42818513e-24
4.17968750e+01	6.40168439e-24
4.18212891e+01	5.62131877e-24
4.18457031e+01	9.09736843e-24
4.18701172e+01	4.48202707e-24
4.18945312e+01	7.57855790e-24
4.19189453e+01	6.66704901e-24
4.19433594e+01	2.21883076e-24
4.19677734e+01	5.56925078e-25
4.19921875e+01	2.67988962e-24
4.20166016e+01	1.06807999e-23
4.20410156e+01	1.26407329e-23
4.20654297e+01	7.47244250e-24
4.20898438e+01	1.12148913e-23
4.21142578e+01	9.41962914e-24
4.21386719e+01	6.63190515e-24
4.21630859e+01	4.43640559e-24
4.21875000e+01	4.53999510e-24
4.22119141e+01	3.57868450e-24
4.22363281e+01	1.54752519e-24
4.22607422e+01	2.56991976e-24
4.22851562e+01	4.78117335e-24
4.23095703e+01	9.14096645e-24
4.23339844e+01	8.18071970e-24
4.23583984e+01	4.29849847e-24
4.23828125e+01	5.33299157e-24
4.24072266e+01	2.86248773e-24
4.24316406e+01	3.12516816e-24
4.24560547e+01	1.32784568e-24
4.24804688e+01	4.54820215e-24
4.25048828e+01	6.19718488e-24
4.25292969e+01	1.23824684e-23
4.25537109e+01	1.42398351e-23
4.25781250e+01	3.23732633e-24
4.26025391e+01	7.53752851e-24
4.26269531e+01	8.94454405e-24
4.26513672e+01	2.77438644e-24
4.26757812e+01	1.80843162e-24
4.27001953e+01	4.48883555e-24
4.27246094e+01	3.47474448e-24
4.27490234e+01	4.79594997e-24
4.27734375e+01	5.40164079e-24
4.27978516e+01	3.03842149e-24
4.28222656e+01	1.49911662e-24
4.28466797e+01	5.25028625e-24
4.28710938e+01	4.30253434e-24
4.28955078e+01	2.77755430e-24
4.29199219e+01	2.76782651e-24
4.29443359e+01	1.22528571e-23
4.29687500e+01	7.32562543e-24
4.29931641e+01	4.51285521e-24
4.30175781e+01	1.90905302e-24
4.30419922e+01	3.33208701e-24
4.30664062e+01	5.59890726e-24
4.30908203e+01	4.91759045e-24
4.31152344e+01	4.38697714e-24
4.31396484e+01	1.23026747e-23
4.31640625e+01	1.43305333e-23
4.31884766e+01	3.67145167e-24
4.32128906e+01	6.79488784e-24
4.32373047e+01	3.31142414e-24
4.32617188e+01	1.39954712e-24
4.32861328e+01	1.19372162e-24
4.33105469e+01	1.82192693e-24
4.33349609e+01	5.08639936e-24
4.33593750e+01	6.99324773e-24
4.33837891e+01	4.59612978e-24
4.34082031e+01	4.57761343e-24
4.34326172e+01	1.66500093e-23
4.34570312e+01	8.51507472e-24
4.34814453e+01	8.17605853e-24
4.35058594e+01	4.38870868e-24
4.35302734e+01	2.09452986e-24
4.35546875e+01	9.06841280e-24
4.35791016e+01	1.85646762e-23
4.36035156e+01	9.51626386e-24
4.36279297e+01	4.40196628e-24
4.36523438e+01	7.09819370e-24
4.36767578e+01	5.66728395e-24
4.37011719e+01	5.42241698e-24
4.37255859e+01	3.93166332e-24
4.37500000e+01	3.03340168e-24
4.37744141e+01	3.16805281e-24
4.37988281e+01	1.85240622e-24
4.38232422e+01	3.81947353e-24
4.38476562e+01	9.61622818e-24
4.38720703e+01	1.23941082e-23
4.38964844e+01	6.71447914e-24
4.39208984e+01	3.07222481e-24
4.39453125e+01	2.70057155e-24
4.39697266e+01	2.05695534e-24
4.39941406e+01	1.25965488e-23
4.40185547e+01	2.68566818e-23
4.40429688e+01	1.87350771e-23
4.40673828e+01	2.86559683e-24
4.40917969e+01	2.19198182e-24
4.41162109e+01	5.83344750e-24
4.41406250e+01	4.64460589e-24
4.41650391e+01	3.87741164e-24
4.41894531e+01	4.55735901e-24
4.42138672e+01	2.71420541e-24
4.42382812e+01	5.20934720e-24
4.42626953e+01	5.96447636e-24
4.42871094e+01	4.42858401e-24
4.43115234e+01	9.67740550e-24
4.43359375e+01	7.45294374e-24
4.43603516e+01	2.40257229e-24
4.43847656e+01	4.37580658e-24
4.44091797e+01	2.97145570e-24
4.44335938e+01	1.00189763e-23
4.44580078e+01	1.04451926e-23
4.44824219e+01	4.54999262e-24
4.45068359e+01	1.04831881e-23
4.45312500e+01	2.35694341e-23
4.45556641e+01	1.68035945e-23
4.45800781e+01	7.88916269e-24
4.46044922e+01	5.80828004e-24
4.46289062e+01	1.01152732e-23
4.46533203e+01	8.02528440e-24
4.46777344e+01	1.29039776e-23
4.47021484e+01	1.89892251e-23
4.47265625e+01	1.81293742e-23
4.47509766e+01	1.92801628e-23
4.47753906e+01	7.45366197e-24
4.47998047e+01	8.60113987e-24
4.48242188e+01	8.57258349e-24
4.48486328e+01	1.93512522e-23
4.48730469e+01	1.61706819e-23
4.48974609e+01	1.21480463e-23
4.49218750e+01	2.68518314e-23
4.49462891e+01	1.61465629e-23
4.49707031e+01	4.55662780e-23
4.49951172e+01	2.46356648e-23
4.50195312e+01	1.04438194e-23
4.50439453e+01	3.30141980e-24
4.50683594e+01	7.74667960e-24
4.50927734e+01	1.90286302e-23
4.51171875e+01	2.81163177e-23
4.51416016e+01	4.55281085e-23
4.51660156e+01	2.66494556e-23
4.51904297e+01	4.90485860e-23
4.52148438e+01	2.91664476e-23
4.52392578e+01	1.49422038e-23
4.52636719e+01	5.24625301e-24
4.52880859e+01	4.33450301e-24
4.53125000e+01	1.29862069e-23
4.53369141e+01	1.38705132e-23
4.53613281e+01	1.37365065e-23
4.53857422e+01	9.31070476e-24
4.54101562e+01	1.08811173e-23
4.54345703e+01	7.03416456e-24
4.54589844e+01	6.77439304e-24
4.54833984e+01	5.98854308e-24
4.55078125e+01	2.22302078e-24
4.55322266e+01	4.38846939e-24
4.55566406e+01	1.63612127e-23
4.55810547e+01	2.07366417e-23
4.56054688e+01	1.66492761e-23
4.56298828e+01	3.27323894e-23
4.56542969e+01	2.66548372e-23
4.56787109e+01	1.16872860e-23
4.57031250e+01	1.65803838e-23
4.57275391e+01	6.89305852e-24
4.57519531e+01	4.45099863e-24
4.57763672e+01	1.15811371e-23
4.58007812e+01	1.81705669e-23
4.58251953e+01	3.15409015e-23
4.58496094e+01	5.10904116e-23
4.58740234e+01	2.99122126e-23
4.58984375e+01	7.30656317e-24
4.59228516e+01	1.01850554e-23
4.59472656e+01	1.03977746e-23
4.59716797e+01	5.13262259e-24
4.59960938e+01	5.39895744e-24
4.60205078e+01	1.27145966e-23
4.60449219e+01	4.77989092e-24
4.60693359e+01	3.35302981e-24
4.60937500e+01	5.60747293e-24
4.61181641e+01	5.42702185e-24
4.61425781e+01	9.16379650e-24
4.61669922e+01	9.92622463e-24
4.61914062e+01	1.49441984e-23
4.62158203e+01	2.77148661e-23
4.62402344e+01	2.80854119e-23
4.62646484e+01	1.87497861e-23
4.62890625e+01	5.89263633e-23
4.63134766e+01	4.87428675e-23
4.63378906e+01	9.75942340e-24
4.63623047e+01	1.33543073e-23
4.63867188e+01	1.78468894e-23
4.64111328e+01	7.82243078e-24
4.64355469e+01	1.92302403e-23
4.64599609e+01	1.05638684e-23
4.64843750e+01	3.61010875e-24
4.65087891e+01	1.84047252e-23
4.65332031e+01	1.39655086e-23
4.65576172e+01	5.96897307e-24
4.65820312e+01	8.82292251e-24
4.66064453e+01	3.19088204e-23
4.66308594e+01	1.78752383e-23
4.66552734e+01	1.50647139e-23
4.66796875e+01	2.11806447e-23
4.67041016e+01	1.12075871e-23
4.67285156e+01	6.61139110e-24
4.67529297e+01	7.98170835e-24
4.67773438e+01	6.42070323e-24
4.68017578e+01	5.83094645e-24
4.68261719e+01	1.61830894e-23
4.68505859e+01	1.40657729e-23
4.68750000e+01	8.19546736e-24
4.68994141e+01	1.05600604e-23
4.69238281e+01	1.21521861e-23
4.69482422e+01	1.85349643e-23
4.69726562e+01	1.27212401e-23
4.69970703e+01	6.50665795e-24
4.70214844e+01	6.47973878e-24
4.70458984e+01	8.90352410e-24
4.70703125e+01	7.70895396e-24
4.70947266e+01	7.91103501e-24
4.71191406e+01	1.35731459e-23
4.71435547e+01	2.14620377e-23
4.71679688e+01	2.88271325e-23
4.71923828e+01	7.24871518e-24
4.72167969e+01	3.46131344e-24
4.72412109e+01	3.41178732e-24
4.72656250e+01	1.19648640e-23
4.72900391e+01	1.61267942e-23
4.73144531e+01	1.43174545e-23
4.73388672e+01	2.48025573e-23
4.73632812e+01	2.41252002e-23
4.73876953e+01	3.24542147e-23
4.74121094e+01	1.57540818e-23
4.74365234e+01	3.35538528e-24
4.74609375e+01	9.96525204e-25
4.74853516e+01	4.59651282e-24
4.75097656e+01	6.89051563e-24
4.75341797e+01	6.79892310e-24
4.75585938e+01	1.60208360e-23
4.75830078e+01	2.22030573e-23
4.76074219e+01	3.50163126e-23
4.76318359e+01	1.04041106e-23
4.76562500e+01	2.93902900e-24
4.76806641e+01	4.01561970e-24
4.77050781e+01	1.32694589e-23
4.77294922e+01	1.36650894e-23
4.77539062e+01	1.29823677e-23
4.77783203e+01	1.86368488e-23
4.78027344e+01	1.00557977e-23
4.78271484e+01	2.08397874e-24
4.78515625e+01	1.63321294e-24
4.78759766e+01	1.01442638e-24
4.79003906e+01	1.81096731e-24
4.79248047e+01	6.76108793e-24
4.79492188e+01	5.30664654e-24
4.79736328e+01	6.85344616e-24
4.79980469e+01	6.74731421e-24
4.80224609e+01	3.67050274e-24
4.80468750e+01	6.45721513e-24
4.80712891e+01	5.99351737e-24
4.80957031e+01	2.79443406e-24
4.81201172e+01	3.58538536e-24
4.81445312e+01	6.92223760e-25
4.81689453e+01	3.38615734e-24
4.81933594e+01	4.72133905e-24
4.82177734e+01	1.32268991e-23
4.82421875e+01	4.58192528e-24
4.82666016e+01	2.93464943e-24
4.82910156e+01	3.11116808e-24
4.83154297e+01	2.00738372e-24
4.83398438e+01	1.49256840e-24
4.83642578e+01	3.23371052e-24
4.83886719e+01	9.75376704e-24
4.84130859e+01	4.05324432e-24
4.84375000e+01	1.83615009e-23
4.84619141e+01	1.27607962e-23
4.84863281e+01	1.44410324e-23
4.85107422e+01	4.09959766e-24
4.85351562e+01	5.13648093e-24
4.85595703e+01	8.04229584e-24
4.85839844e+01	1.36986766e-23
4.86083984e+01	1.48856507e-23
4.86328125e+01	2.29837360e-23
4.86572266e+01	2.15697993e-23
4.86816406e+01	8.01447369e-24
4.87060547e+01	1.99552712e-23
4.87304688e+01	1.92528249e-23
4.87548828e+01	1.69306037e-23
4.87792969e+01	8.46727777e-24
4.88037109e+01	4.49925878e-25
4.88281250e+01	1.95585145e-24
4.88525391e+01	2.76395387e-24
4.88769531e+01	1.87255251e-23
4.89013672e+01	1.05597374e-23
4.89257812e+01	1.50315615e-23
4.89501953e+01	3.01340595e-23
4.89746094e+01	1.11699544e-23
4.89990234e+01	4.79484925e-24
4.90234375e+01	5.85689855e-24
4.90478516e+01	1.21910178e-23
4.90722656e+01	5.69308303e-24
4.90966797e+01	1.89999459e-23
4.91210938e+01	1.29317848e-23
4.91455078e+01	8.68572968e-24
4.91699219e+01	1.03123305e-23