scalar
part
         1
quad4
 5.61218e-07
 5.17666e-07
 4.74508e-07
 4.33394e-07
 3.95184e-07
 3.60228e-07
 3.28564e-07
 3.00058e-07
 2.74482e-07
 2.51573e-07
 2.31062e-07
 2.12688e-07
 1.96211e-07
 1.81412e-07
 1.68096e-07
 1.56091e-07
 1.45245e-07
 1.35425e-07
 1.26514e-07
 1.18410e-07
 6.66123e-07
 6.02463e-07
 5.42781e-07
 4.88353e-07
 4.39530e-07
 3.96152e-07
 3.57810e-07
 3.23997e-07
 2.94192e-07
 2.67896e-07
 2.44658e-07
 2.24078e-07
 2.05805e-07
 1.89537e-07
 1.75012e-07
 1.62007e-07
 1.50329e-07
 1.39813e-07
 1.30317e-07
 1.21720e-07
 7.90277e-07
 6.99207e-07
 6.18249e-07
 5.47481e-07
 4.86144e-07
 4.33166e-07
 3.87428e-07
 3.47882e-07
 3.13602e-07
 2.83788e-07
 2.57763e-07
 2.34959e-07
 2.14898e-07
 1.97183e-07
 1.81478e-07
 1.67506e-07
 1.55029e-07
 1.43851e-07
 1.33802e-07
 1.24741e-07
 9.33923e-07
 8.06702e-07
 6.99315e-07
 6.09222e-07
 5.33674e-07
 4.70157e-07
 4.16525e-07
 3.71005e-07
 3.32155e-07
 2.98811e-07
 2.70031e-07
 2.45058e-07
 2.23273e-07
 2.04176e-07
 1.87357e-07
 1.72477e-07
 1.59257e-07
 1.47466e-07
 1.36908e-07
 1.27423e-07
 1.09423e-06
 9.21568e-07
 7.82952e-07
 6.71123e-07
 5.80216e-07
 5.05673e-07
 4.44002e-07
 3.92533e-07
 3.49220e-07
 3.12482e-07
 2.81093e-07
 2.54088e-07
 2.30707e-07
 2.10343e-07
 1.92509e-07
 1.76810e-07
 1.62924e-07
 1.50586e-07
 1.39578e-07
 1.29718e-07
 1.26343e-06
 1.03752e-06
 8.64479e-07
 7.29804e-07
 6.23350e-07
 5.37979e-07
 4.68606e-07
 4.11555e-07
 3.64124e-07
 3.24303e-07
 2.90571e-07
 2.61765e-07
 2.36982e-07
 2.15514e-07
 1.96804e-07
 1.80402e-07
 1.65947e-07
 1.53146e-07
 1.41758e-07
 1.31584e-07
 1.42742e-06
 1.14515e-06
 9.37700e-07
 7.81159e-07
 6.60316e-07
 5.65189e-07
 4.89028e-07
 4.27144e-07
 3.76205e-07
 3.33791e-07
 2.98112e-07
 2.67823e-07
 2.41896e-07
 2.19536e-07
 2.00122e-07
 1.83159e-07
 1.68254e-07
 1.55089e-07
 1.43403e-07
 1.32985e-07
 1.56629e-06
 1.23281e-06
 9.95612e-07
 8.20838e-07
 6.88333e-07
 5.85477e-07
 5.04037e-07
 4.38455e-07
 3.84868e-07
 3.40520e-07
 3.03406e-07
 2.72034e-07
 2.45280e-07
 2.22280e-07
 2.02365e-07
 1.85007e-07
 1.69787e-07
 1.56367e-07
 1.44476e-07
 1.33890e-07
 1.65831e-06
 1.28896e-06
 1.03169e-06
 8.44979e-07
 7.05017e-07
 5.97318e-07
 5.12631e-07
 4.44811e-07
 3.89646e-07
 3.44163e-07
 3.06217e-07
 2.74227e-07
 2.47006e-07
 2.23651e-07
 2.03461e-07
 1.85889e-07
 1.70501e-07
 1.56948e-07
 1.44950e-07
 1.34278e-07
 1.68691e-06
 1.30524e-06
 1.04142e-06
 8.50983e-07
 7.08804e-07
 5.99735e-07
 5.14177e-07
 4.45793e-07
 3.90253e-07
 3.44520e-07
 3.06405e-07
 2.74300e-07
 2.47002e-07
 2.23594e-07
 2.03369e-07
 1.85775e-07
 1.70373e-07
 1.56812e-07
 1.44811e-07
 1.34138e-07
 1.64691e-06
 1.27912e-06
 1.02344e-06
 8.38089e-07
 6.99246e-07
 5.92456e-07
 5.08507e-07
 4.41289e-07
 3.86618e-07
 3.41544e-07
 3.03937e-07
 2.72232e-07
 2.45251e-07
 2.22099e-07
 2.02083e-07
 1.84659e-07
 1.69399e-07
 1.55958e-07
 1.44057e-07
 1.33470e-07
 1.54606e-06
 1.21449e-06
 9.79875e-07
 8.07526e-07
 6.77095e-07
 5.75960e-07
 4.95936e-07
 4.31520e-07
 3.78894e-07
 3.35344e-07
 2.98895e-07
 2.68082e-07
 2.41799e-07
 2.19201e-07
 1.99628e-07
 1.82564e-07
 1.67598e-07
 1.54399e-07
 1.42700e-07
 1.32281e-07
 1.40126e-06
 1.12017e-06
 9.15652e-07
 7.62202e-07
 6.44144e-07
 5.51395e-07
 4.77225e-07
 4.16999e-07
 3.67439e-07
 3.26176e-07
 2.91463e-07
 2.61987e-07
 2.36750e-07
 2.14977e-07
 1.96065e-07
 1.79536e-07
 1.65005e-07
 1.52164e-07
 1.40762e-07
 1.30592e-07
 1.23274e-06
 1.00736e-06
 8.37297e-07
 7.06083e-07
 6.02894e-07
 5.20391e-07
 4.53464e-07
 3.98476e-07
 3.52780e-07
 3.14417e-07
 2.81916e-07
 2.54152e-07
 2.30255e-07
 2.09545e-07
 1.91485e-07
 1.75644e-07
 1.61676e-07
 1.49298e-07
 1.38280e-07
 1.28431e-07
 1.05903e-06
 8.87094e-07
 7.51592e-07
 6.43471e-07
 5.56150e-07
 4.84820e-07
 4.25935e-07
 3.76846e-07
 3.35553e-07
 3.00528e-07
 2.70594e-07
 2.44828e-07
 2.22506e-07
 2.03051e-07
 1.86000e-07
 1.70978e-07
 1.57681e-07
 1.45857e-07
 1.35298e-07
 1.25834e-07
 8.93919e-07
 7.68424e-07
 6.64523e-07
 5.78373e-07
 5.06638e-07
 4.46572e-07
 3.95966e-07
 3.53057e-07
 3.16446e-07
 2.85015e-07
 2.57872e-07
 2.34301e-07
 2.13721e-07
 1.95662e-07
 1.79741e-07
 1.65641e-07
 1.53101e-07
 1.41905e-07
 1.31869e-07
 1.22844e-07
 7.45662e-07
 6.57634e-07
 5.80673e-07
 5.14089e-07
 4.56732e-07
 4.07359e-07
 3.64804e-07
 3.28028e-07
 2.96141e-07
 2.68390e-07
 2.44141e-07
 2.22867e-07
 2.04129e-07
 1.87559e-07
 1.72850e-07
 1.59745e-07
 1.48027e-07
 1.37514e-07
 1.28052e-07
 1.19508e-07
 6.17703e-07
 5.58258e-07
 5.03060e-07
 4.53024e-07
 4.08291e-07
 3.68604e-07
 3.33532e-07
 3.02584e-07
 2.75270e-07
 2.51137e-07
 2.29774e-07
 2.10820e-07
 1.93960e-07
 1.78922e-07
 1.65471e-07
 1.53405e-07
 1.42552e-07
 1.32762e-07
 1.23908e-07
 1.15879e-07
 5.10173e-07
 4.71634e-07
 4.33298e-07
 3.96702e-07
 3.62625e-07
 3.31384e-07
 3.03018e-07
 2.77414e-07
 2.54381e-07
 2.33692e-07
 2.15118e-07
 1.98435e-07
 1.83434e-07
 1.69928e-07
 1.57746e-07
 1.46737e-07
 1.36769e-07
 1.27725e-07
 1.19501e-07
 1.12008e-07
 4.21338e-07
 3.97610e-07
 3.71926e-07
 3.45898e-07
 3.20539e-07
 2.96438e-07
 2.73904e-07
 2.53061e-07
 2.33920e-07
 2.16422e-07
 2.00472e-07
 1.85955e-07
 1.72751e-07
 1.60740e-07
 1.49809e-07
 1.39852e-07
 1.30771e-07
 1.22478e-07
 1.14895e-07
 1.07948e-07
