scalar
part
         1
quad4
 5.13985e-07
 4.77496e-07
 4.40570e-07
 4.04820e-07
 3.71151e-07
 3.40001e-07
 3.11508e-07
 2.85636e-07
 2.62247e-07
 2.41156e-07
 2.22158e-07
 2.05048e-07
 1.89630e-07
 1.75721e-07
 1.63157e-07
 1.51790e-07
 1.41486e-07
 1.32129e-07
 1.23615e-07
 1.15852e-07
 6.13117e-07
 5.58534e-07
 5.06545e-07
 4.58503e-07
 4.14913e-07
 3.75795e-07
 3.40913e-07
 3.09911e-07
 2.82392e-07
 2.57965e-07
 2.36258e-07
 2.16939e-07
 1.99710e-07
 1.84310e-07
 1.70510e-07
 1.58114e-07
 1.46950e-07
 1.36870e-07
 1.27746e-07
 1.19466e-07
 7.31277e-07
 6.51797e-07
 5.80212e-07
 5.16908e-07
 4.61473e-07
 4.13153e-07
 3.71097e-07
 3.34472e-07
 3.02521e-07
 2.74575e-07
 2.50058e-07
 2.28477e-07
 2.09417e-07
 1.92524e-07
 1.77501e-07
 1.64094e-07
 1.52092e-07
 1.41311e-07
 1.31599e-07
 1.22824e-07
 8.69324e-07
 7.56650e-07
 6.60412e-07
 5.78801e-07
 5.09704e-07
 4.51112e-07
 4.01265e-07
 3.58676e-07
 3.22116e-07
 2.90574e-07
 2.63226e-07
 2.39398e-07
 2.18539e-07
 2.00194e-07
 1.83990e-07
 1.69617e-07
 1.56818e-07
 1.45377e-07
 1.35114e-07
 1.25876e-07
 1.02559e-06
 8.70585e-07
 7.44712e-07
 6.42110e-07
 5.57939e-07
 4.88367e-07
 4.30407e-07
 3.81743e-07
 3.40573e-07
 3.05494e-07
 2.75400e-07
 2.49417e-07
 2.26851e-07
 2.07141e-07
 1.89837e-07
 1.74570e-07
 1.61038e-07
 1.48994e-07
 1.38229e-07
 1.28573e-07
 1.19420e-06
 9.88501e-07
 8.29131e-07
 7.03855e-07
 6.03981e-07
 5.23301e-07
 4.57330e-07
 4.02787e-07
 3.57234e-07
 3.18837e-07
 2.86200e-07
 2.58244e-07
 2.34128e-07
 2.13191e-07
 1.94903e-07
 1.78842e-07
 1.64665e-07
 1.52090e-07
 1.40888e-07
 1.30868e-07
 1.36366e-06
 1.10233e-06
 9.08139e-07
 7.60248e-07
 6.45213e-07
 5.54084e-07
 4.80739e-07
 4.20879e-07
 3.71419e-07
 3.30105e-07
 2.95254e-07
 2.65597e-07
 2.40157e-07
 2.18177e-07
 1.99061e-07
 1.82335e-07
 1.67618e-07
 1.54603e-07
 1.43039e-07
 1.32719e-07
 1.51669e-06
 1.20149e-06
 9.75110e-07
 8.07041e-07
 6.78844e-07
 5.78844e-07
 4.99347e-07
 4.35118e-07
 3.82490e-07
 3.38833e-07
 3.02222e-07
 2.71223e-07
 2.44746e-07
 2.21955e-07
 2.02197e-07
 1.84959e-07
 1.69829e-07
 1.56478e-07
 1.44639e-07
 1.34092e-07
 1.63270e-06
 1.27447e-06
 1.02331e-06
 8.40121e-07
 7.02276e-07
 5.95885e-07
 5.12022e-07
 4.44729e-07
 3.89901e-07
 3.44634e-07
 3.06824e-07
 2.74916e-07
 2.47741e-07
 2.24408e-07
 2.04223e-07
 1.86645e-07
 1.71244e-07
 1.57673e-07
 1.45654e-07
 1.34959e-07
 1.69296e-06
 1.31143e-06
 1.04721e-06
 8.56234e-07
 7.13507e-07
 6.03932e-07
 5.17925e-07
 4.49146e-07
 3.93265e-07
 3.47234e-07
 3.08861e-07
 2.76531e-07
 2.49036e-07
 2.25455e-07
 2.05078e-07
 1.87348e-07
 1.71826e-07
 1.58158e-07
 1.46061e-07
 1.35302e-07
 1.68657e-06
 1.30685e-06
 1.04382e-06
 8.53648e-07
 7.11492e-07
 6.02332e-07
 5.16632e-07
 4.48088e-07
 3.92388e-07
 3.46499e-07
 3.08239e-07
 2.76000e-07
 2.48579e-07
 2.25059e-07
 2.04733e-07
 1.87045e-07
 1.71558e-07
 1.57921e-07
 1.45850e-07
 1.35113e-07
 1.61429e-06
 1.26117e-06
 1.01339e-06
 8.32532e-07
 6.96343e-07
 5.91160e-07
 5.08199e-07
 4.41594e-07
 3.87299e-07
 3.42450e-07
 3.04974e-07
 2.73335e-07
 2.46381e-07
 2.23228e-07
 2.03194e-07
 1.85742e-07
 1.70446e-07
 1.56966e-07
 1.45024e-07
 1.34395e-07
 1.48831e-06
 1.18066e-06
 9.59410e-07
 7.94927e-07
 6.69312e-07
 5.71214e-07
 4.93150e-07
 4.30018e-07
 3.78244e-07
 3.35262e-07
 2.99192e-07
 2.68630e-07
 2.42510e-07
 2.20014e-07
 2.00501e-07
 1.83469e-07
 1.68513e-07
 1.55310e-07
 1.43598e-07
 1.33160e-07
 1.32800e-06
 1.07564e-06
 8.87720e-07
 7.44315e-07
 6.32563e-07
 5.43887e-07
 4.72408e-07
 4.13990e-07
 3.65662e-07
 3.25246e-07
 2.91119e-07
 2.62049e-07
 2.37091e-07
 2.15511e-07
 1.96728e-07
 1.80282e-07
 1.65803e-07
 1.52990e-07
 1.41600e-07
 1.31429e-07
 1.15402e-06
 9.57767e-07
 8.05210e-07
 6.84934e-07
 5.88795e-07
 5.10950e-07
 4.47166e-07
 3.94332e-07
 3.50131e-07
 3.12818e-07
 2.81057e-07
 2.53818e-07
 2.30293e-07
 2.09847e-07
 1.91972e-07
 1.76258e-07
 1.62376e-07
 1.50053e-07
 1.39068e-07
 1.29235e-07
 9.83328e-07
 8.37514e-07
 7.18491e-07
 6.21057e-07
 5.40834e-07
 4.74315e-07
 4.18745e-07
 3.71973e-07
 3.32317e-07
 2.98461e-07
 2.69365e-07
 2.44204e-07
 2.22319e-07
 2.03178e-07
 1.86353e-07
 1.71492e-07
 1.58307e-07
 1.46559e-07
 1.36050e-07
 1.26616e-07
 8.26908e-07
 7.22684e-07
 6.32966e-07
 5.56416e-07
 4.91278e-07
 4.35810e-07
 3.88448e-07
 3.47855e-07
 3.12910e-07
 2.82687e-07
 2.56425e-07
 2.33497e-07
 2.13390e-07
 1.95677e-07
 1.80008e-07
 1.66090e-07
 1.53680e-07
 1.42575e-07
 1.32601e-07
 1.23615e-07
 6.90053e-07
 6.18044e-07
 5.52424e-07
 4.93885e-07
 4.42267e-07
 3.97021e-07
 3.57454e-07
 3.22857e-07
 2.92570e-07
 2.65997e-07
 2.42620e-07
 2.21994e-07
 2.03736e-07
 1.87523e-07
 1.73077e-07
 1.60164e-07
 1.48587e-07
 1.38174e-07
 1.28780e-07
 1.20282e-07
 5.73926e-07
 5.25774e-07
 4.79089e-07
 4.35402e-07
 3.95386e-07
 3.59205e-07
 3.26743e-07
 2.97744e-07
 2.71890e-07
 2.48852e-07
 2.28313e-07
 2.09978e-07
 1.93584e-07
 1.78894e-07
 1.65704e-07
 1.53831e-07
 1.43120e-07
 1.33432e-07
 1.24649e-07
 1.16669e-07
 4.77278e-07
 4.46228e-07
 4.13924e-07
 3.82070e-07
 3.51673e-07
 3.23265e-07
 2.97073e-07
 2.73134e-07
 2.51373e-07
 2.31658e-07
 2.13827e-07
 1.97711e-07
 1.83142e-07
 1.69963e-07
 1.58027e-07
 1.47203e-07
 1.37371e-07
 1.28426e-07
 1.20272e-07
 1.12826e-07
