scalar
part
         1
quad4
 4.41884e-07
 4.15632e-07
 3.87565e-07
 3.59382e-07
 3.32125e-07
 3.06384e-07
 2.82448e-07
 2.60415e-07
 2.40267e-07
 2.21918e-07
 2.05249e-07
 1.90123e-07
 1.76401e-07
 1.63950e-07
 1.52643e-07
 1.42363e-07
 1.33005e-07
 1.24473e-07
 1.16681e-07
 1.09554e-07
 5.34180e-07
 4.92153e-07
 4.50683e-07
 4.11368e-07
 3.74987e-07
 3.41816e-07
 3.11846e-07
 2.84913e-07
 2.60779e-07
 2.39177e-07
 2.19843e-07
 2.02525e-07
 1.86993e-07
 1.73039e-07
 1.60478e-07
 1.49147e-07
 1.38904e-07
 1.29624e-07
 1.21197e-07
 1.13528e-07
 6.45692e-07
 5.81449e-07
 5.22171e-07
 4.68762e-07
 4.21279e-07
 3.79367e-07
 3.42499e-07
 3.10099e-07
 2.81609e-07
 2.56517e-07
 2.34369e-07
 2.14768e-07
 1.97373e-07
 1.81888e-07
 1.68063e-07
 1.55682e-07
 1.44561e-07
 1.34543e-07
 1.25494e-07
 1.17297e-07
 7.77991e-07
 6.83462e-07
 6.01304e-07
 5.30634e-07
 4.70084e-07
 4.18219e-07
 3.73709e-07
 3.35392e-07
 3.02282e-07
 2.73551e-07
 2.48513e-07
 2.26598e-07
 2.07334e-07
 1.90330e-07
 1.75261e-07
 1.61854e-07
 1.49883e-07
 1.39155e-07
 1.29509e-07
 1.20808e-07
 9.30506e-07
 7.96468e-07
 6.86174e-07
 5.95258e-07
 5.19957e-07
 4.57202e-07
 4.04548e-07
 3.60064e-07
 3.22227e-07
 2.89831e-07
 2.61921e-07
 2.37734e-07
 2.16655e-07
 1.98188e-07
 1.81930e-07
 1.67550e-07
 1.54776e-07
 1.43381e-07
 1.33178e-07
 1.24009e-07
 1.09891e-06
 9.16315e-07
 7.73366e-07
 6.59983e-07
 5.68888e-07
 4.94808e-07
 4.33884e-07
 3.83261e-07
 3.40795e-07
 3.04862e-07
 2.74214e-07
 2.47882e-07
 2.25104e-07
 2.05280e-07
 1.87926e-07
 1.72654e-07
 1.59147e-07
 1.47148e-07
 1.36441e-07
 1.26850e-07
 1.27351e-06
 1.03591e-06
 8.57850e-07
 7.21268e-07
 6.14376e-07
 5.29254e-07
 4.60434e-07
 4.04046e-07
 3.57298e-07
 3.18130e-07
 2.85003e-07
 2.56746e-07
 2.32455e-07
 2.11429e-07
 1.93109e-07
 1.77055e-07
 1.62910e-07
 1.50384e-07
 1.39241e-07
 1.29285e-07
 1.43874e-06
 1.14535e-06
 9.33261e-07
 7.74937e-07
 6.53623e-07
 5.58629e-07
 4.82865e-07
 4.21478e-07
 3.71055e-07
 3.29138e-07
 2.93920e-07
 2.64049e-07
 2.38497e-07
 2.16472e-07
 1.97355e-07
 1.80656e-07
 1.65986e-07
 1.53028e-07
 1.41527e-07
 1.31273e-07
 1.57468e-06
 1.23317e-06
 9.92690e-07
 8.16681e-07
 6.83858e-07
 5.81097e-07
 4.99932e-07
 4.34691e-07
 3.81456e-07
 3.37445e-07
 3.00641e-07
 2.69551e-07
 2.43048e-07
 2.20272e-07
 2.00555e-07
 1.83372e-07
 1.68308e-07
 1.55026e-07
 1.43257e-07
 1.32779e-07
 1.66126e-06
 1.28849e-06
 1.02991e-06
 8.42757e-07
 7.02736e-07
 5.95142e-07
 5.10625e-07
 4.42994e-07
 3.88015e-07
 3.42704e-07
 3.04915e-07
 2.73065e-07
 2.45968e-07
 2.22722e-07
 2.02628e-07
 1.85141e-07
 1.69827e-07
 1.56340e-07
 1.44400e-07
 1.33779e-07
 1.68398e-06
 1.30380e-06
 1.04073e-06
 8.50696e-07
 7.08737e-07
 5.99790e-07
 5.14299e-07
 4.45950e-07
 3.90427e-07
 3.44700e-07
 3.06584e-07
 2.74475e-07
 2.47171e-07
 2.23756e-07
 2.03523e-07
 1.85921e-07
 1.70511e-07
 1.56943e-07
 1.44934e-07
 1.34255e-07
 1.63898e-06
 1.27710e-06
 1.02404e-06
 8.39834e-07
 7.01444e-07
 5.94769e-07
 5.10771e-07
 4.43429e-07
 3.88603e-07
 3.43365e-07
 3.05600e-07
 2.73745e-07
 2.46627e-07
 2.23351e-07
 2.03223e-07
 1.85699e-07
 1.70349e-07
 1.56827e-07
 1.44854e-07
 1.34202e-07
 1.53482e-06
 1.21264e-06
 9.82102e-07
 8.11460e-07
 6.81623e-07
 5.80551e-07
 5.00341e-07
 4.35629e-07
 3.82671e-07
 3.38788e-07
 3.02023e-07
 2.70918e-07
 2.44369e-07
 2.21531e-07
 2.01744e-07
 1.84489e-07
 1.69351e-07
 1.56000e-07
 1.44164e-07
 1.33623e-07
 1.38941e-06
 1.11963e-06
 9.20006e-07
 7.68529e-07
 6.51070e-07
 5.58268e-07
 4.83745e-07
 4.23042e-07
 3.72971e-07
 3.31207e-07
 2.96022e-07
 2.66115e-07
 2.40486e-07
 2.18362e-07
 1.99137e-07
 1.82327e-07
 1.67546e-07
 1.54483e-07
 1.42882e-07
 1.32534e-07
 1.22381e-06
 1.00960e-06
 8.44384e-07
 7.15035e-07
 6.12280e-07
 5.29531e-07
 4.62052e-07
 4.06394e-07
 3.60006e-07
 3.20977e-07
 2.87855e-07
 2.59525e-07
 2.35117e-07
 2.13950e-07
 1.95481e-07
 1.79275e-07
 1.64982e-07
 1.52315e-07
 1.41038e-07
 1.30957e-07
 1.05629e-06
 8.93537e-07
 7.62003e-07
 6.55256e-07
 5.68030e-07
 4.96185e-07
 4.36517e-07
 3.86556e-07
 3.44392e-07
 3.08541e-07
 2.77844e-07
 2.51386e-07
 2.28442e-07
 2.08429e-07
 1.90881e-07
 1.75415e-07
 1.61722e-07
 1.49545e-07
 1.38672e-07
 1.28925e-07
 8.99387e-07
 7.80038e-07
 6.78657e-07
 5.93105e-07
 5.20990e-07
 4.60078e-07
 4.08437e-07
 3.64452e-07
 3.26796e-07
 2.94389e-07
 2.66352e-07
 2.41972e-07
 2.20667e-07
 2.01960e-07
 1.85459e-07
 1.70843e-07
 1.57842e-07
 1.46234e-07
 1.35832e-07
 1.26476e-07
 7.59734e-07
 6.74694e-07
 5.98618e-07
 5.31730e-07
 4.73449e-07
 4.22874e-07
 3.79026e-07
 3.40975e-07
 3.07881e-07
 2.79016e-07
 2.53754e-07
 2.31569e-07
 2.12013e-07
 1.94712e-07
 1.79351e-07
 1.65664e-07
 1.53427e-07
 1.42450e-07
 1.32572e-07
 1.23656e-07
 6.39523e-07
 5.80390e-07
 5.24574e-07
 4.73364e-07
 4.27177e-07
 3.85941e-07
 3.49334e-07
 3.16927e-07
 2.88262e-07
 2.62895e-07
 2.40416e-07
 2.20460e-07
 2.02703e-07
 1.86862e-07
 1.72695e-07
 1.59990e-07
 1.48565e-07
 1.38264e-07
 1.28951e-07
 1.20511e-07
 5.38207e-07
 4.98027e-07
 4.57886e-07
 4.19389e-07
 3.83402e-07
 3.50310e-07
 3.20200e-07
 2.92981e-07
 2.68473e-07
 2.46450e-07
 2.26674e-07
 2.08914e-07
 1.92949e-07
 1.78581e-07
 1.65629e-07
 1.53931e-07
 1.43347e-07
 1.33750e-07
 1.25031e-07
 1.17092e-07
