# f [Hz] vs Prms(f) [Pa]
# Lower frequency: 2.50000000e+01
# Upper frequency: 1.00000000e+04
# Window model  : Hanning
# Window number : 3
# Window samples: 4096
# Window overlap %: 5.00000000e+01
# dBRef         : 2.00000000e-05
# f             	Prms(f)         
2.50000000e+01	1.10198914e-13
2.50244141e+01	1.57443833e-13
2.50488281e+01	1.78576556e-13
2.50732422e+01	1.37710270e-13
2.50976562e+01	2.83072734e-13
2.51220703e+01	2.77814575e-13
2.51464844e+01	2.26501374e-13
2.51708984e+01	3.59464904e-13
2.51953125e+01	3.10793368e-13
2.52197266e+01	1.91197417e-13
2.52441406e+01	1.58939590e-13
2.52685547e+01	1.92681020e-13
2.52929688e+01	1.62834017e-13
2.53173828e+01	1.06943542e-13
2.53417969e+01	1.52286065e-13
2.53662109e+01	4.28947884e-13
2.53906250e+01	5.21360553e-13
2.54150391e+01	2.83225367e-13
2.54394531e+01	1.90346849e-13
2.54638672e+01	1.62967842e-13
2.54882812e+01	2.01107479e-13
2.55126953e+01	1.77004276e-13
2.55371094e+01	1.72671386e-13
2.55615234e+01	2.35179228e-13
2.55859375e+01	2.19615441e-13
2.56103516e+01	2.42538172e-13
2.56347656e+01	1.71240381e-13
2.56591797e+01	1.54257437e-13
2.56835938e+01	1.57337126e-13
2.57080078e+01	2.26616770e-13
2.57324219e+01	2.91920516e-13
2.57568359e+01	3.03121835e-13
2.57812500e+01	3.85989093e-13
2.58056641e+01	3.79503326e-13
2.58300781e+01	3.15911118e-13
2.58544922e+01	2.65247767e-13
2.58789062e+01	2.32004937e-13
2.59033203e+01	2.03738927e-13
2.59277344e+01	1.62670252e-13
2.59521484e+01	1.25908118e-13
2.59765625e+01	8.81320597e-14
2.60009766e+01	5.97721377e-14
2.60253906e+01	2.20397697e-13
2.60498047e+01	3.96239539e-13
2.60742188e+01	3.15394557e-13
2.60986328e+01	1.01935810e-13
2.61230469e+01	1.28519826e-13
2.61474609e+01	1.58898840e-13
2.61718750e+01	1.33048605e-13
2.61962891e+01	1.25178256e-13
2.62207031e+01	1.84939483e-13
2.62451172e+01	2.78853726e-13
2.62695312e+01	3.86555944e-13
2.62939453e+01	3.28503702e-13
2.63183594e+01	1.71533745e-13
2.63427734e+01	1.33564151e-13
2.63671875e+01	1.59262965e-13
2.63916016e+01	1.60593527e-13
2.64160156e+01	2.35376298e-13
2.64404297e+01	3.30324220e-13
2.64648438e+01	2.33657329e-13
2.64892578e+01	3.93561725e-13
2.65136719e+01	4.26404775e-13
2.65380859e+01	2.14006507e-13
2.65625000e+01	1.91754980e-13
2.65869141e+01	2.05635500e-13
2.66113281e+01	2.34530203e-13
2.66357422e+01	1.44873484e-13
2.66601562e+01	1.08151325e-13
2.66845703e+01	2.22009522e-13
2.67089844e+01	5.38845510e-13
2.67333984e+01	4.01388243e-13
2.67578125e+01	9.22574144e-14
2.67822266e+01	9.80682435e-14
2.68066406e+01	1.88091698e-13
2.68310547e+01	1.38833539e-13
2.68554688e+01	9.57380017e-14
2.68798828e+01	1.61612330e-13
2.69042969e+01	4.41999958e-13
2.69287109e+01	5.27890126e-13
2.69531250e+01	1.74633460e-13
2.69775391e+01	1.70628014e-13
2.70019531e+01	1.58798919e-13
2.70263672e+01	1.44903018e-13
2.70507812e+01	2.24502203e-13
2.70751953e+01	2.72498203e-13
2.70996094e+01	3.74105031e-13
2.71240234e+01	2.23512882e-13
2.71484375e+01	4.85827467e-13
2.71728516e+01	4.16142204e-13
2.71972656e+01	1.87271759e-13
2.72216797e+01	1.90890837e-13
2.72460938e+01	2.20198448e-13
2.72705078e+01	1.64141301e-13
2.72949219e+01	1.48860587e-13
2.73193359e+01	2.19727843e-13
2.73437500e+01	2.51848414e-13
2.73681641e+01	2.51289021e-13
2.73925781e+01	2.02697745e-13
2.74169922e+01	1.53379671e-13
2.74414062e+01	1.61411771e-13
2.74658203e+01	1.87700489e-13
2.74902344e+01	1.93093773e-13
2.75146484e+01	1.88003048e-13
2.75390625e+01	2.61669267e-13
2.75634766e+01	1.97049852e-13
2.75878906e+01	4.47769715e-13
2.76123047e+01	3.78422419e-13
2.76367188e+01	1.30312263e-13
2.76611328e+01	1.09618836e-13
2.76855469e+01	1.60078982e-13
2.77099609e+01	1.69420466e-13
2.77343750e+01	1.33785918e-13
2.77587891e+01	1.79602987e-13
2.77832031e+01	1.95351008e-13
2.78076172e+01	3.25604491e-13
2.78320312e+01	3.51972397e-13
2.78564453e+01	1.99246153e-13
2.78808594e+01	2.16911637e-13
2.79052734e+01	2.20715581e-13
2.79296875e+01	2.00045729e-13
2.79541016e+01	2.13515967e-13
2.79785156e+01	2.64900440e-13
2.80029297e+01	3.13736514e-13
2.80273438e+01	2.79928645e-13
2.80517578e+01	3.21541708e-13
2.80761719e+01	1.83888804e-13
2.81005859e+01	1.17280556e-13
2.81250000e+01	2.54329297e-13
2.81494141e+01	2.26833928e-13
2.81738281e+01	1.27601318e-13
2.81982422e+01	7.97113729e-14
2.82226562e+01	9.58545971e-14
2.82470703e+01	2.28140676e-13
2.82714844e+01	2.09934414e-13
2.82958984e+01	1.38476293e-13
2.83203125e+01	1.09470252e-13
2.83447266e+01	1.66041508e-13
2.83691406e+01	1.26928334e-13
2.83935547e+01	1.73052399e-13
2.84179688e+01	2.09089751e-13
2.84423828e+01	1.13566756e-13
2.84667969e+01	3.22888097e-13
2.84912109e+01	4.25048728e-13
2.85156250e+01	2.65488275e-13
2.85400391e+01	1.79860344e-13
2.85644531e+01	1.54633885e-13
2.85888672e+01	1.23154370e-13
2.86132812e+01	1.77309615e-13
2.86376953e+01	2.43934754e-13
2.86621094e+01	2.53393370e-13
2.86865234e+01	3.63699292e-13
2.87109375e+01	3.20734194e-13
2.87353516e+01	1.10094252e-13
2.87597656e+01	1.11242546e-13
2.87841797e+01	1.71136876e-13
2.88085938e+01	1.70288752e-13
2.88330078e+01	1.92659243e-13
2.88574219e+01	2.18223270e-13
2.88818359e+01	1.62117364e-13
2.89062500e+01	1.16847588e-13
2.89306641e+01	1.28971448e-13
2.89550781e+01	9.68568192e-14
2.89794922e+01	1.37848515e-13
2.90039062e+01	2.48603359e-13
2.90283203e+01	2.16960920e-13
2.90527344e+01	1.32313177e-13
2.90771484e+01	1.30870213e-13
2.91015625e+01	1.50590175e-13
2.91259766e+01	1.65415586e-13
2.91503906e+01	1.33902980e-13
2.91748047e+01	8.87656560e-14
2.91992188e+01	9.34811165e-14
2.92236328e+01	1.22287467e-13
2.92480469e+01	1.62873775e-13
2.92724609e+01	1.01853406e-13
2.92968750e+01	9.08870298e-14
2.93212891e+01	1.98137455e-13
2.93457031e+01	2.43633476e-13
2.93701172e+01	2.10801391e-13
2.93945312e+01	1.33844034e-13
2.94189453e+01	1.05558488e-13
2.94433594e+01	9.60917378e-14
2.94677734e+01	1.07773480e-13
2.94921875e+01	7.81359857e-14
2.95166016e+01	1.50805590e-13
2.95410156e+01	2.23851401e-13
2.95654297e+01	1.50552194e-13
2.95898438e+01	1.87168412e-13
2.96142578e+01	1.30935401e-13
2.96386719e+01	1.23085689e-13
2.96630859e+01	1.41692161e-13
2.96875000e+01	1.58503535e-13
2.97119141e+01	1.81866094e-13
2.97363281e+01	1.62807554e-13
2.97607422e+01	9.34598998e-14
2.97851562e+01	9.33187645e-14
2.98095703e+01	1.36920195e-13
2.98339844e+01	1.48983975e-13
2.98583984e+01	9.55433217e-14
2.98828125e+01	8.41060067e-14
2.99072266e+01	1.82186650e-13
2.99316406e+01	2.44938300e-13
2.99560547e+01	1.86918683e-13
2.99804688e+01	1.38864760e-13
3.00048828e+01	3.24314940e-13
3.00292969e+01	2.91086952e-13
3.00537109e+01	1.40969411e-13
3.00781250e+01	2.07069331e-13
3.01025391e+01	2.27361306e-13
3.01269531e+01	2.37899371e-13
3.01513672e+01	1.64219461e-13
3.01757812e+01	1.97692882e-13
3.02001953e+01	1.62692795e-13
3.02246094e+01	1.56928513e-13
3.02490234e+01	1.12606364e-13
3.02734375e+01	7.31235585e-14
3.02978516e+01	9.12225717e-14
3.03222656e+01	1.03660967e-13
3.03466797e+01	9.51654212e-14
3.03710938e+01	1.47541880e-13
3.03955078e+01	1.67174026e-13
3.04199219e+01	1.63079902e-13
3.04443359e+01	2.61869933e-13
3.04687500e+01	2.99339318e-13
3.04931641e+01	2.06529248e-13
3.05175781e+01	1.76075480e-13
3.05419922e+01	1.51287039e-13
3.05664062e+01	1.37485524e-13
3.05908203e+01	8.84969643e-14
3.06152344e+01	1.44376870e-13
3.06396484e+01	9.99817129e-14
3.06640625e+01	3.25332741e-13
3.06884766e+01	3.78340267e-13
3.07128906e+01	2.51185297e-13
3.07373047e+01	1.78801417e-13
3.07617188e+01	9.72831917e-14
3.07861328e+01	1.88038820e-13
3.08105469e+01	1.80291142e-13
3.08349609e+01	1.23845368e-13
3.08593750e+01	1.31317171e-13
3.08837891e+01	2.33577654e-13
3.09082031e+01	3.46684986e-13
3.09326172e+01	1.67974724e-13
3.09570312e+01	9.80661086e-14
3.09814453e+01	8.30031158e-14
3.10058594e+01	1.66492813e-13
3.10302734e+01	1.47283168e-13
3.10546875e+01	1.95346988e-13
3.10791016e+01	2.06201837e-13
3.11035156e+01	2.47173592e-13
3.11279297e+01	1.91957912e-13
3.11523438e+01	1.02455079e-13
3.11767578e+01	7.04339676e-14
3.12011719e+01	1.28444377e-13
3.12255859e+01	1.71037793e-13
3.12500000e+01	2.35169342e-13
3.12744141e+01	2.88260983e-13
3.12988281e+01	3.06039436e-13
3.13232422e+01	1.96495424e-13
3.13476562e+01	1.42313819e-13
3.13720703e+01	1.94709935e-13
3.13964844e+01	2.24517274e-13
3.14208984e+01	2.35602448e-13
3.14453125e+01	2.43038744e-13
3.14697266e+01	2.37593247e-13
3.14941406e+01	3.45153719e-13
3.15185547e+01	4.01653211e-13
3.15429688e+01	2.20502837e-13
3.15673828e+01	1.80894600e-13
3.15917969e+01	1.05683118e-13
3.16162109e+01	9.80580221e-14
3.16406250e+01	1.23937517e-13
3.16650391e+01	9.63979571e-14
3.16894531e+01	6.91146471e-14
3.17138672e+01	1.63946537e-13
3.17382812e+01	2.48054181e-13
3.17626953e+01	2.46940270e-13
3.17871094e+01	3.08191386e-13
3.18115234e+01	2.18008573e-13
3.18359375e+01	1.66207076e-13
3.18603516e+01	1.38882475e-13
3.18847656e+01	2.91408642e-13
3.19091797e+01	2.88558798e-13
3.19335938e+01	2.59818971e-13
3.19580078e+01	2.53399178e-13
3.19824219e+01	3.15169566e-13
3.20068359e+01	3.70551548e-13
3.20312500e+01	2.20612226e-13
3.20556641e+01	1.73546141e-13
3.20800781e+01	1.56669170e-13
3.21044922e+01	1.64942126e-13
3.21289062e+01	1.62928891e-13
3.21533203e+01	1.87265469e-13
3.21777344e+01	2.55773431e-13
3.22021484e+01	4.83396299e-13
3.22265625e+01	5.69915658e-13
3.22509766e+01	2.13335808e-13
3.22753906e+01	2.52486731e-13
3.22998047e+01	2.97523774e-13
3.23242188e+01	4.07880263e-13
3.23486328e+01	3.09735816e-13
3.23730469e+01	2.57729732e-13
3.23974609e+01	5.93786152e-13
3.24218750e+01	6.80164339e-13
3.24462891e+01	7.43340103e-13
3.24707031e+01	4.37512565e-13
3.24951172e+01	3.61940208e-13
3.25195312e+01	4.11277256e-13
3.25439453e+01	3.33175657e-13
3.25683594e+01	4.74305697e-13
3.25927734e+01	3.90910827e-13
3.26171875e+01	4.64465234e-13
3.26416016e+01	5.93978676e-13
3.26660156e+01	6.97371081e-13
3.26904297e+01	3.65380664e-13
3.27148438e+01	2.87073346e-13
3.27392578e+01	3.53144019e-13
3.27636719e+01	3.64101330e-13
3.27880859e+01	3.06862848e-13
3.28125000e+01	3.08793969e-13
3.28369141e+01	4.49962731e-13
3.28613281e+01	6.18207388e-13
3.28857422e+01	6.41380921e-13
3.29101562e+01	2.73205681e-13
3.29345703e+01	1.59048570e-13
3.29589844e+01	1.87044987e-13
3.29833984e+01	1.92639490e-13
3.30078125e+01	2.05210891e-13
3.30322266e+01	1.93729637e-13
3.30566406e+01	2.10123008e-13
3.30810547e+01	2.42534851e-13
3.31054688e+01	1.75959974e-13
3.31298828e+01	1.91316832e-13
3.31542969e+01	1.81404899e-13
3.31787109e+01	2.41901944e-13
3.32031250e+01	2.26257820e-13
3.32275391e+01	1.12146699e-13
3.32519531e+01	3.53239555e-13
3.32763672e+01	2.96309252e-13
3.33007812e+01	2.90776299e-13
3.33251953e+01	2.76402114e-13
3.33496094e+01	1.64687208e-13
3.33740234e+01	1.86105016e-13
3.33984375e+01	2.71838332e-13
3.34228516e+01	2.20008865e-13
3.34472656e+01	1.62604482e-13
3.34716797e+01	3.42162510e-13
3.34960938e+01	4.06050543e-13
3.35205078e+01	5.20112605e-13
3.35449219e+01	4.80533165e-13
3.35693359e+01	2.24652657e-13
3.35937500e+01	1.93592915e-13
3.36181641e+01	3.04914820e-13
3.36425781e+01	2.97706750e-13
3.36669922e+01	2.37902102e-13
3.36914062e+01	3.29257489e-13
3.37158203e+01	5.66808517e-13
3.37402344e+01	8.69091629e-13
3.37646484e+01	8.43616519e-13
3.37890625e+01	2.98907586e-13
3.38134766e+01	1.49150133e-13
3.38378906e+01	3.11099155e-13
3.38623047e+01	3.22505187e-13
3.38867188e+01	3.03106275e-13
3.39111328e+01	3.34562587e-13
3.39355469e+01	4.28392534e-13
3.39599609e+01	7.61551630e-13
3.39843750e+01	7.84513115e-13
3.40087891e+01	3.07289021e-13
3.40332031e+01	1.37266928e-13
3.40576172e+01	1.40762232e-13
3.40820312e+01	1.69646024e-13
3.41064453e+01	1.43667133e-13
3.41308594e+01	2.20640879e-13
3.41552734e+01	2.76040920e-13
3.41796875e+01	2.46859101e-13
3.42041016e+01	2.62859723e-13
3.42285156e+01	1.68454945e-13
3.42529297e+01	3.04170542e-13
3.42773438e+01	3.35185618e-13
3.43017578e+01	2.07929850e-13
3.43261719e+01	2.74908918e-13
3.43505859e+01	3.34689138e-13
3.43750000e+01	3.39864038e-13
3.43994141e+01	4.09903703e-13
3.44238281e+01	3.62448200e-13
3.44482422e+01	1.37358797e-13
3.44726562e+01	9.03019939e-14
3.44970703e+01	1.13170697e-13
3.45214844e+01	9.53511537e-14
3.45458984e+01	1.47348876e-13
3.45703125e+01	2.74620308e-13
3.45947266e+01	2.91145573e-13
3.46191406e+01	3.09428043e-13
3.46435547e+01	2.30829447e-13
3.46679688e+01	9.20658179e-14
3.46923828e+01	1.03037625e-13
3.47167969e+01	1.32665002e-13
3.47412109e+01	5.10752322e-14
3.47656250e+01	9.07607290e-14
3.47900391e+01	2.08256060e-13
3.48144531e+01	2.48495570e-13
3.48388672e+01	1.02861869e-13
3.48632812e+01	2.33295814e-13
3.48876953e+01	2.38052203e-13
3.49121094e+01	1.52992872e-13
3.49365234e+01	3.07203157e-13
3.49609375e+01	3.10231417e-13
3.49853516e+01	2.52549681e-13
3.50097656e+01	2.18833782e-13
3.50341797e+01	1.96567198e-13
3.50585938e+01	2.57289398e-13
3.50830078e+01	1.27163273e-13
3.51074219e+01	8.43901622e-14
3.51318359e+01	1.62235161e-13
3.51562500e+01	2.60162383e-13
3.51806641e+01	2.66664755e-13
3.52050781e+01	2.39170868e-13
3.52294922e+01	2.13174845e-13
3.52539062e+01	1.86924505e-13
3.52783203e+01	2.96526824e-13
3.53027344e+01	3.25490774e-13
3.53271484e+01	1.43771208e-13
3.53515625e+01	9.29379318e-14
3.53759766e+01	1.38627819e-13
3.54003906e+01	1.98400653e-13
3.54248047e+01	2.57043717e-13
3.54492188e+01	2.10099485e-13
3.54736328e+01	2.11217850e-13
3.54980469e+01	2.10403259e-13
3.55224609e+01	2.12875107e-13
3.55468750e+01	1.29661210e-13
3.55712891e+01	1.13293010e-13
3.55957031e+01	1.47566250e-13
3.56201172e+01	1.10184575e-13
3.56445312e+01	1.30870870e-13
3.56689453e+01	1.59272284e-13
3.56933594e+01	2.60603626e-13
3.57177734e+01	2.34794227e-13
3.57421875e+01	1.44460444e-13
3.57666016e+01	8.52751411e-14
3.57910156e+01	7.49003790e-14
3.58154297e+01	1.31753588e-13
3.58398438e+01	1.03412699e-13
3.58642578e+01	1.11193880e-13
3.58886719e+01	1.30101039e-13
3.59130859e+01	2.38425735e-13
3.59375000e+01	3.80391423e-13
3.59619141e+01	3.95067372e-13
3.59863281e+01	2.45827199e-13
3.60107422e+01	9.83005568e-14
3.60351562e+01	9.06998915e-14
3.60595703e+01	1.96779863e-13
3.60839844e+01	1.63817155e-13
3.61083984e+01	1.10789755e-13
3.61328125e+01	1.67157946e-13
3.61572266e+01	3.18021051e-13
3.61816406e+01	2.89041486e-13
3.62060547e+01	1.71737466e-13
3.62304688e+01	1.79207828e-13
3.62548828e+01	1.78349747e-13
3.62792969e+01	1.12503363e-13
3.63037109e+01	1.28433550e-13
3.63281250e+01	1.92512208e-13
3.63525391e+01	2.73790222e-13
3.63769531e+01	4.24383550e-13
3.64013672e+01	4.50003037e-13
3.64257812e+01	2.65513755e-13
3.64501953e+01	1.07095048e-13
3.64746094e+01	1.09069936e-13
3.64990234e+01	1.27122389e-13
3.65234375e+01	1.06434267e-13
3.65478516e+01	1.24819973e-13
3.65722656e+01	2.05332540e-13
3.65966797e+01	2.14037204e-13
3.66210938e+01	1.42017346e-13
3.66455078e+01	2.13115203e-13
3.66699219e+01	2.91028587e-13
3.66943359e+01	1.47196036e-13
3.67187500e+01	1.92793074e-13
3.67431641e+01	2.06252689e-13
3.67675781e+01	2.62770241e-13
3.67919922e+01	3.15229261e-13
3.68164062e+01	3.28223416e-13
3.68408203e+01	3.32363919e-13
3.68652344e+01	2.10038036e-13
3.68896484e+01	1.55482931e-13
3.69140625e+01	1.03827915e-13
3.69384766e+01	1.34068553e-13
3.69628906e+01	1.00497243e-13
3.69873047e+01	2.63592247e-13
3.70117188e+01	3.72148386e-13
3.70361328e+01	2.69008903e-13
3.70605469e+01	2.38453142e-13
3.70849609e+01	1.91967554e-13
3.71093750e+01	2.06789313e-13
3.71337891e+01	1.65425553e-13
3.71582031e+01	9.82843421e-14
3.71826172e+01	1.39444486e-13
3.72070312e+01	1.73415889e-13
3.72314453e+01	2.66683457e-13
3.72558594e+01	2.47423110e-13
3.72802734e+01	2.77900029e-13
3.73046875e+01	2.52974866e-13
3.73291016e+01	1.21237082e-13
3.73535156e+01	7.13197377e-14
3.73779297e+01	2.00746610e-13
3.74023438e+01	1.07028959e-13
3.74267578e+01	1.16938225e-13
3.74511719e+01	2.28396533e-13
3.74755859e+01	2.60136339e-13
3.75000000e+01	2.97965485e-13
3.75244141e+01	2.03852599e-13
3.75488281e+01	1.22757073e-13
3.75732422e+01	1.32328918e-13
3.75976562e+01	1.93829358e-13
3.76220703e+01	2.52266389e-13
3.76464844e+01	2.64707310e-13
3.76708984e+01	1.33547931e-13
3.76953125e+01	1.64348018e-13
3.77197266e+01	2.79649210e-13
3.77441406e+01	2.36735405e-13
3.77685547e+01	2.85271978e-13
3.77929688e+01	2.84002205e-13
3.78173828e+01	2.42729163e-13
3.78417969e+01	2.31061879e-13
3.78662109e+01	2.19327857e-13
3.78906250e+01	1.75742756e-13
3.79150391e+01	1.51949955e-13
3.79394531e+01	2.67156479e-13
3.79638672e+01	2.12039277e-13
3.79882812e+01	2.36622110e-13
3.80126953e+01	2.57950452e-13
3.80371094e+01	1.50018630e-13
3.80615234e+01	1.93522971e-13
3.80859375e+01	2.82564394e-13
3.81103516e+01	1.31822927e-13
3.81347656e+01	2.60873809e-13
3.81591797e+01	3.45040858e-13
3.81835938e+01	1.89972454e-13
3.82080078e+01	1.07630590e-13
3.82324219e+01	9.14064510e-14
3.82568359e+01	1.23442252e-13
3.82812500e+01	1.45744602e-13
3.83056641e+01	2.35638388e-13
3.83300781e+01	1.90103412e-13
3.83544922e+01	1.88340861e-13
3.83789062e+01	2.01932404e-13
3.84033203e+01	1.18366936e-13
3.84277344e+01	8.47891316e-14
3.84521484e+01	1.36162972e-13
3.84765625e+01	1.19710529e-13
3.85009766e+01	1.74108865e-13
3.85253906e+01	2.49147138e-13
3.85498047e+01	1.74598230e-13
3.85742188e+01	2.02230398e-13
3.85986328e+01	2.78517407e-13
3.86230469e+01	1.69268218e-13
3.86474609e+01	1.51353601e-13
3.86718750e+01	1.45217064e-13
3.86962891e+01	1.28422615e-13
3.87207031e+01	1.08201313e-13
3.87451172e+01	2.85960896e-13
3.87695312e+01	2.74963706e-13
3.87939453e+01	1.98496559e-13
3.88183594e+01	3.11779854e-13
3.88427734e+01	2.60324534e-13
3.88671875e+01	1.90210231e-13
3.88916016e+01	2.59755692e-13
3.89160156e+01	2.45465224e-13
3.89404297e+01	2.38105455e-13
3.89648438e+01	2.91822839e-13
3.89892578e+01	2.75601900e-13
3.90136719e+01	2.56755847e-13
3.90380859e+01	2.71208785e-13
3.90625000e+01	1.42264867e-13
3.90869141e+01	1.55739800e-13
3.91113281e+01	1.23431570e-13
3.91357422e+01	1.09996507e-13
3.91601562e+01	1.52845773e-13
3.91845703e+01	1.70787298e-13
3.92089844e+01	1.66772576e-13
3.92333984e+01	1.78186956e-13
3.92578125e+01	1.21275529e-13
3.92822266e+01	2.05039197e-13
3.93066406e+01	1.88139715e-13
3.93310547e+01	1.12548290e-13
3.93554688e+01	1.72045552e-13
3.93798828e+01	1.92739131e-13
3.94042969e+01	2.40770928e-13
3.94287109e+01	2.43988707e-13
3.94531250e+01	1.60119950e-13
3.94775391e+01	2.35589363e-13
3.95019531e+01	1.80282818e-13
3.95263672e+01	1.17019040e-13
3.95507812e+01	1.49911628e-13
3.95751953e+01	1.81154090e-13
3.95996094e+01	2.37641069e-13
3.96240234e+01	2.84104655e-13
3.96484375e+01	2.21512102e-13
3.96728516e+01	2.58170460e-13
3.96972656e+01	3.55529057e-13
3.97216797e+01	2.37860103e-13
3.97460938e+01	1.33792052e-13
3.97705078e+01	1.70464106e-13
3.97949219e+01	2.12858574e-13
3.98193359e+01	2.42797056e-13
3.98437500e+01	1.69928769e-13
3.98681641e+01	1.76014975e-13
3.98925781e+01	2.51618045e-13
3.99169922e+01	3.16310359e-13
3.99414062e+01	2.00071818e-13
3.99658203e+01	1.16761667e-13
3.99902344e+01	8.38051993e-14
4.00146484e+01	6.23661600e-14
4.00390625e+01	1.34423232e-13
4.00634766e+01	1.27275136e-13
4.00878906e+01	1.24256377e-13
4.01123047e+01	7.88579638e-14
4.01367188e+01	1.76914450e-13
4.01611328e+01	2.26349064e-13
4.01855469e+01	1.69939252e-13
4.02099609e+01	1.20020090e-13
4.02343750e+01	1.80802184e-13
4.02587891e+01	1.56421396e-13
4.02832031e+01	1.26179790e-13
4.03076172e+01	1.41926482e-13
4.03320312e+01	1.68533661e-13
4.03564453e+01	2.14043719e-13
4.03808594e+01	1.56732741e-13
4.04052734e+01	1.36644913e-13
4.04296875e+01	1.65841760e-13
4.04541016e+01	2.30791080e-13
4.04785156e+01	2.31592026e-13
4.05029297e+01	2.63128397e-13
4.05273438e+01	2.29283843e-13
4.05517578e+01	2.23011498e-13
4.05761719e+01	2.69715593e-13
4.06005859e+01	1.78576931e-13
4.06250000e+01	8.34424101e-14
4.06494141e+01	1.10969109e-13
4.06738281e+01	9.56948847e-14
4.06982422e+01	1.38713561e-13
4.07226562e+01	1.17777322e-13
4.07470703e+01	9.53078142e-14
4.07714844e+01	1.31010139e-13
4.07958984e+01	1.70207756e-13
4.08203125e+01	9.66927695e-14
4.08447266e+01	1.27844002e-13
4.08691406e+01	1.29056497e-13
4.08935547e+01	1.44467885e-13
4.09179688e+01	1.93687822e-13
4.09423828e+01	1.40563422e-13
4.09667969e+01	1.21701981e-13
4.09912109e+01	1.91354314e-13
4.10156250e+01	1.49381189e-13
4.10400391e+01	8.71191388e-14
4.10644531e+01	1.24578325e-13
4.10888672e+01	1.28909472e-13
4.11132812e+01	9.29693383e-14
4.11376953e+01	1.58925113e-13
4.11621094e+01	1.82188053e-13
4.11865234e+01	1.39571806e-13
4.12109375e+01	2.54804162e-13
4.12353516e+01	2.80384955e-13
4.12597656e+01	1.66063922e-13
4.12841797e+01	1.35658097e-13
4.13085938e+01	1.12703466e-13
4.13330078e+01	1.19911800e-13
4.13574219e+01	1.90348138e-13
4.13818359e+01	3.15883604e-13
4.14062500e+01	2.35288493e-13
4.14306641e+01	8.76390968e-14
4.14550781e+01	1.17061029e-13
4.14794922e+01	1.26903119e-13
4.15039062e+01	1.12619084e-13
4.15283203e+01	9.55033163e-14
4.15527344e+01	8.37685706e-14
4.15771484e+01	1.06282020e-13
4.16015625e+01	1.80902237e-13
4.16259766e+01	1.96658597e-13
4.16503906e+01	2.38117754e-13
4.16748047e+01	2.30901764e-13
4.16992188e+01	1.95939472e-13
4.17236328e+01	1.41737448e-13
4.17480469e+01	1.36469492e-13
4.17724609e+01	1.36509236e-13
4.17968750e+01	1.63704036e-13
4.18212891e+01	1.54429528e-13
4.18457031e+01	1.99840042e-13
4.18701172e+01	1.39127692e-13
4.18945312e+01	1.80962144e-13
4.19189453e+01	1.70479399e-13
4.19433594e+01	9.61549789e-14
4.19677734e+01	5.09292852e-14
4.19921875e+01	1.06129408e-13
4.20166016e+01	2.11178488e-13
4.20410156e+01	2.27881215e-13
4.20654297e+01	1.79485165e-13
4.20898438e+01	2.19503109e-13
4.21142578e+01	2.00904432e-13
4.21386719e+01	1.67383642e-13
4.21630859e+01	1.36969905e-13
4.21875000e+01	1.41191638e-13
4.22119141e+01	1.23525966e-13
4.22363281e+01	8.07589573e-14
4.22607422e+01	1.03260536e-13
4.22851562e+01	1.45174715e-13
4.23095703e+01	2.01524782e-13
4.23339844e+01	1.89982101e-13
4.23583984e+01	1.34525118e-13
4.23828125e+01	1.48595706e-13
4.24072266e+01	1.11909755e-13
4.24316406e+01	1.19069472e-13
4.24560547e+01	7.18824016e-14
4.24804688e+01	1.40082746e-13
4.25048828e+01	1.61978722e-13
4.25292969e+01	2.33404261e-13
4.25537109e+01	2.51991069e-13
4.25781250e+01	1.19218430e-13
4.26025391e+01	1.74416217e-13
4.26269531e+01	1.91448633e-13
4.26513672e+01	1.06439507e-13
4.26757812e+01	8.88365519e-14
4.27001953e+01	1.40940191e-13
4.27246094e+01	1.25784188e-13
4.27490234e+01	1.46092051e-13
4.27734375e+01	1.55091730e-13
4.27978516e+01	1.13429630e-13
4.28222656e+01	8.08604088e-14
4.28466797e+01	1.54712700e-13
4.28710938e+01	1.37396351e-13
4.28955078e+01	1.06507776e-13
4.29199219e+01	1.14135100e-13
4.29443359e+01	2.32879269e-13
4.29687500e+01	1.82804016e-13
4.29931641e+01	1.41658937e-13
4.30175781e+01	9.32003971e-14
4.30419922e+01	1.24642193e-13
4.30664062e+01	1.58163041e-13
4.30908203e+01	1.42055023e-13
4.31152344e+01	1.33796258e-13
4.31396484e+01	2.33542065e-13
4.31640625e+01	2.52891653e-13
4.31884766e+01	1.30643816e-13
4.32128906e+01	1.74575756e-13
4.32373047e+01	1.20874783e-13
4.32617188e+01	7.50707486e-14
4.32861328e+01	7.28275564e-14
4.33105469e+01	9.35911701e-14
4.33349609e+01	1.51092697e-13
4.33593750e+01	1.75025888e-13
4.33837891e+01	1.40052823e-13
4.34082031e+01	1.36858748e-13
4.34326172e+01	2.71414707e-13
4.34570312e+01	1.89914572e-13
4.34814453e+01	1.83040629e-13
4.35058594e+01	1.35241088e-13
4.35302734e+01	9.11377631e-14
4.35546875e+01	1.97806759e-13
4.35791016e+01	2.87108633e-13
4.36035156e+01	2.07125250e-13
4.36279297e+01	1.43021815e-13
4.36523438e+01	1.72715256e-13
4.36767578e+01	1.50062904e-13
4.37011719e+01	1.48695882e-13
4.37255859e+01	1.32001730e-13
4.37500000e+01	1.10444549e-13
4.37744141e+01	1.11964846e-13
4.37988281e+01	8.99658271e-14
4.38232422e+01	1.30115691e-13
4.38476562e+01	2.06415278e-13
4.38720703e+01	2.33169697e-13
4.38964844e+01	1.72200802e-13
4.39208984e+01	1.12423552e-13
4.39453125e+01	1.09937718e-13
4.39697266e+01	9.05479344e-14
4.39941406e+01	2.30856164e-13
4.40185547e+01	3.42898083e-13
4.40429688e+01	2.86998697e-13
4.40673828e+01	1.16285871e-13
4.40917969e+01	9.99918673e-14
4.41162109e+01	1.57289804e-13
4.41406250e+01	1.41487167e-13
4.41650391e+01	1.23936211e-13
4.41894531e+01	1.35823756e-13
4.42138672e+01	1.12916670e-13
4.42382812e+01	1.52396470e-13
4.42626953e+01	1.62225754e-13
4.42871094e+01	1.45416706e-13
4.43115234e+01	2.10354097e-13
4.43359375e+01	1.85690355e-13
4.43603516e+01	1.02621026e-13
4.43847656e+01	1.32749730e-13
4.44091797e+01	1.11551496e-13
4.44335938e+01	2.04189586e-13
4.44580078e+01	2.11479205e-13
4.44824219e+01	1.39113396e-13
4.45068359e+01	2.17935504e-13
4.45312500e+01	3.24968272e-13
4.45556641e+01	2.72965738e-13
4.45800781e+01	1.87870733e-13
4.46044922e+01	1.56652220e-13
4.46289062e+01	2.09136293e-13
4.46533203e+01	1.92015237e-13
4.46777344e+01	2.44375891e-13
4.47021484e+01	2.91214814e-13
4.47265625e+01	2.81452850e-13
4.47509766e+01	2.87011786e-13
4.47753906e+01	1.83459733e-13
4.47998047e+01	1.93819225e-13
4.48242188e+01	1.96528672e-13
4.48486328e+01	2.89384832e-13
4.48730469e+01	2.66132832e-13
4.48974609e+01	2.34623721e-13
4.49218750e+01	3.46602646e-13
4.49462891e+01	2.68505074e-13
4.49707031e+01	4.52261800e-13
4.49951172e+01	3.26457193e-13
4.50195312e+01	2.12472570e-13
4.50439453e+01	1.16261089e-13
4.50683594e+01	1.84808107e-13
4.50927734e+01	2.91240685e-13
4.51171875e+01	3.53425505e-13
4.51416016e+01	4.42519115e-13
4.51660156e+01	3.38350756e-13
4.51904297e+01	4.67803145e-13
4.52148438e+01	3.53414217e-13
4.52392578e+01	2.56273248e-13
4.52636719e+01	1.55455665e-13
4.52880859e+01	1.39600580e-13
4.53125000e+01	2.36268015e-13
4.53369141e+01	2.40982116e-13
4.53613281e+01	2.43276508e-13
4.53857422e+01	2.00410505e-13
4.54101562e+01	2.20260866e-13
4.54345703e+01	1.76799930e-13
4.54589844e+01	1.63331005e-13
4.54833984e+01	1.59856238e-13
4.55078125e+01	1.03117581e-13
4.55322266e+01	1.43828363e-13
4.55566406e+01	2.68321439e-13
4.55810547e+01	2.99599229e-13
4.56054688e+01	2.66754461e-13
4.56298828e+01	3.80310623e-13
4.56542969e+01	3.48402700e-13
4.56787109e+01	2.28901448e-13
4.57031250e+01	2.69250192e-13
4.57275391e+01	1.73154169e-13
4.57519531e+01	1.40598603e-13
4.57763672e+01	2.35608324e-13
4.58007812e+01	2.77610982e-13
4.58251953e+01	3.72227943e-13
4.58496094e+01	4.74514001e-13
4.58740234e+01	3.53735257e-13
4.58984375e+01	1.62928486e-13
4.59228516e+01	2.00432290e-13
4.59472656e+01	2.10169117e-13
4.59716797e+01	1.43925760e-13
4.59960938e+01	1.51327076e-13
4.60205078e+01	2.31966811e-13
4.60449219e+01	1.43678416e-13
4.60693359e+01	1.20932049e-13
4.60937500e+01	1.52362025e-13
4.61181641e+01	1.45780788e-13
4.61425781e+01	1.92336977e-13
4.61669922e+01	2.00419013e-13
4.61914062e+01	2.52762931e-13
4.62158203e+01	3.52234312e-13
4.62402344e+01	3.49763422e-13
4.62646484e+01	2.80795695e-13
4.62890625e+01	5.11744616e-13
4.63134766e+01	4.60988492e-13
4.63378906e+01	1.94990020e-13
4.63623047e+01	2.25844603e-13
4.63867188e+01	2.73696470e-13
4.64111328e+01	1.83079019e-13
4.64355469e+01	2.99932320e-13
4.64599609e+01	2.28136381e-13
4.64843750e+01	1.17970629e-13
4.65087891e+01	2.80316185e-13
4.65332031e+01	2.45244535e-13
4.65576172e+01	1.67560773e-13
4.65820312e+01	1.92032185e-13
4.66064453e+01	3.51561033e-13
4.66308594e+01	2.71119573e-13
4.66552734e+01	2.60324566e-13
4.66796875e+01	3.07104839e-13
4.67041016e+01	2.20416422e-13
4.67285156e+01	1.66180915e-13
4.67529297e+01	1.90766387e-13
4.67773438e+01	1.75021661e-13
4.68017578e+01	1.70786195e-13
4.68261719e+01	2.51244174e-13
4.68505859e+01	2.37967190e-13
4.68750000e+01	1.89502983e-13
4.68994141e+01	2.20159454e-13
4.69238281e+01	2.35081576e-13
4.69482422e+01	2.80473507e-13
4.69726562e+01	2.26537632e-13
4.69970703e+01	1.53417919e-13
4.70214844e+01	1.57438668e-13
4.70458984e+01	1.84019877e-13
4.70703125e+01	1.72488782e-13
4.70947266e+01	1.83574310e-13
4.71191406e+01	2.52617655e-13
4.71435547e+01	3.11062208e-13
4.71679688e+01	3.49565469e-13
4.71923828e+01	1.67716929e-13
4.72167969e+01	1.08771747e-13
4.72412109e+01	1.08011449e-13
4.72656250e+01	2.18939814e-13
4.72900391e+01	2.54727888e-13
4.73144531e+01	2.45168893e-13
4.73388672e+01	3.30942414e-13
4.73632812e+01	3.24941307e-13
4.73876953e+01	3.73318287e-13
4.74121094e+01	2.59048990e-13
4.74365234e+01	1.24273323e-13
4.74609375e+01	7.52887331e-14
4.74853516e+01	1.37991952e-13
4.75097656e+01	1.61180732e-13
4.75341797e+01	1.63391591e-13
4.75585938e+01	2.68502190e-13
4.75830078e+01	3.14630783e-13
4.76074219e+01	3.89465969e-13
4.76318359e+01	2.08747033e-13
4.76562500e+01	1.07718469e-13
4.76806641e+01	1.27027128e-13
4.77050781e+01	2.38024608e-13
4.77294922e+01	2.31692434e-13
4.77539062e+01	2.30711586e-13
4.77783203e+01	2.83599909e-13
4.78027344e+01	2.07840832e-13
4.78271484e+01	8.97504248e-14
4.78515625e+01	9.11311871e-14
4.78759766e+01	7.53649040e-14
4.79003906e+01	9.70594295e-14
4.79248047e+01	1.57078940e-13
4.79492188e+01	1.27116790e-13
4.79736328e+01	1.72910834e-13
4.79980469e+01	1.70463071e-13
4.80224609e+01	1.25118175e-13
4.80468750e+01	1.65316016e-13
4.80712891e+01	1.56274669e-13
4.80957031e+01	1.16377871e-13
4.81201172e+01	1.22807642e-13
4.81445312e+01	4.56958553e-14
4.81689453e+01	1.10735610e-13
4.81933594e+01	1.36042928e-13
4.82177734e+01	2.37324227e-13
4.82421875e+01	1.45492954e-13
4.82666016e+01	1.08592769e-13
4.82910156e+01	1.18531705e-13
4.83154297e+01	9.74249022e-14
4.83398438e+01	8.43621792e-14
4.83642578e+01	1.06423737e-13
4.83886719e+01	1.90334522e-13
4.84130859e+01	1.42032105e-13
4.84375000e+01	2.81801429e-13
4.84619141e+01	2.39990042e-13
4.84863281e+01	2.50569877e-13
4.85107422e+01	1.35548504e-13
4.85351562e+01	1.51850144e-13
4.85595703e+01	1.88815495e-13
4.85839844e+01	2.39109854e-13
4.86083984e+01	2.50489433e-13
4.86328125e+01	3.17562906e-13
4.86572266e+01	3.05263210e-13
4.86816406e+01	1.91099617e-13
4.87060547e+01	2.94753167e-13
4.87304688e+01	2.90212067e-13
4.87548828e+01	2.68211541e-13
4.87792969e+01	1.84976970e-13
4.88037109e+01	4.45613777e-14
4.88281250e+01	8.70588199e-14
4.88525391e+01	1.17648244e-13
4.88769531e+01	2.89491191e-13
4.89013672e+01	2.16221017e-13
4.89257812e+01	2.60143703e-13
4.89501953e+01	3.67316930e-13
4.89746094e+01	2.14859745e-13
4.89990234e+01	1.40557822e-13
4.90234375e+01	1.58515651e-13
4.90478516e+01	2.25073811e-13
4.90722656e+01	1.57200408e-13
4.90966797e+01	2.89446657e-13
4.91210938e+01	2.38915471e-13
4.91455078e+01	1.99696160e-13
4.91699219e+01	2.13325111e-13