# vtk DataFile Version 2.0
gauge_2
ASCII
DATASET POLYDATA
POINTS 68 double
0.2 0.0314993 0.005
0.2 0.0329993 0.005
0.2 0.0344993 0.005
0.2 0.0359992 0.005
0.2 0.0374992 0.005
0.2 0.0389992 0.005
0.2 0.0404991 0.005
0.2 0.0419991 0.005
0.2 0.0434991 0.005
0.2 0.044999 0.005
0.2 0.046499 0.005
0.2 0.047999 0.005
0.2 0.0511894 0.005
0.2 0.0543799 0.005
0.2 0.0575704 0.005
0.2 0.0607609 0.005
0.2 0.0639514 0.005
0.2 0.0671419 0.005
0.2 0.0703323 0.005
0.2 0.0735228 0.005
0.2 0.0767133 0.005
0.2 0.0799038 0.005
0.2 0.0830943 0.005
0.2 0.0862847 0.005
0.2 0.0894752 0.005
0.2 0.0926657 0.005
0.2 0.0958562 0.005
0.2 0.0990467 0.005
0.2 0.102237 0.005
0.2 0.105428 0.005
0.2 0.108618 0.005
0.2 0.111809 0.005
0.2 0.11819 0.005
0.2 0.124571 0.005
0.2 0.137332 0.005
0.2 0.150094 0.005
0.2 0.162856 0.005
0.2 0.175618 0.005
0.2 0.18838 0.005
0.2 0.201142 0.005
0.2 0.213904 0.005
0.2 0.226666 0.005
0.2 0.239428 0.005
0.2 0.25219 0.005
0.2 0.264952 0.005
0.2 0.277714 0.005
0.2 0.290476 0.005
0.2 0.303238 0.005
0.2 0.315999 0.005
0.2 0.328761 0.005
0.2 0.341523 0.005
0.2 0.354285 0.005
0.2 0.367047 0.005
0.2 0.379809 0.005
0.2 0.392571 0.005
0.2 0.405333 0.005
0.2 0.418095 0.005
0.2 0.430857 0.005
0.2 0.443619 0.005
0.2 0.456381 0.005
0.2 0.469143 0.005
0.2 0.481905 0.005
0.2 0.494666 0.005
0.2 0.507428 0.005
0.2 0.52019 0.005
0.2 0.532952 0.005
0.2 0.545714 0.005
0.2 0.558476 0.005
POINT_DATA 68
 FIELD attributes 1
alpha.water 1 68 float
1 1 1 1 1 1 1 1 1 1 1 1 1 1 1 1 1 1 1 0.999998 0.999996 0.999942 0.999842 0.999712 0.99993 0.992447 0.918744 0.622958 0.272061 3.10959e-12 2.25951e-12 3.69136e-12 1.69296e-11 6.83143e-09 6.23946e-08 9.26979e-08 4.16305e-08 7.25462e-12 7.264e-12 4.01109e-12 3.9058e-13 6.42122e-14 9.46425e-16 2.82615e-18 -2.0231e-17 -5.01139e-18 7.88923e-19 5.12077e-19 7.5288e-20 1.04619e-19 8.19894e-20 3.18113e-20 5.44034e-21 4.59862e-21 -2.3231e-19 -5.5961e-15 -1.88416e-14 6.49695e-15 2.36588e-13 2.1447e-08 1.28528e-07 4.42801e-08 9.85629e-09 1.13424e-10 4.85265e-11 -1.10886e-12 -3.04913e-12 -3.63381e-16
