scalar
part
         1
quad4
 5.15429e-07
 4.77838e-07
 4.39981e-07
 4.03489e-07
 3.69257e-07
 3.37699e-07
 3.08927e-07
 2.82879e-07
 2.59393e-07
 2.38265e-07
 2.19275e-07
 2.02204e-07
 1.86848e-07
 1.73017e-07
 1.60541e-07
 1.49266e-07
 1.39059e-07
 1.29798e-07
 1.21380e-07
 1.13712e-07
 6.14454e-07
 5.58454e-07
 5.05341e-07
 4.56457e-07
 4.12273e-07
 3.72760e-07
 3.37637e-07
 3.06510e-07
 2.78952e-07
 2.54545e-07
 2.32901e-07
 2.13672e-07
 1.96552e-07
 1.81270e-07
 1.67595e-07
 1.55325e-07
 1.44286e-07
 1.34328e-07
 1.25322e-07
 1.17155e-07
 7.32264e-07
 6.50978e-07
 5.78070e-07
 5.13857e-07
 4.57840e-07
 4.09183e-07
 3.66966e-07
 3.30303e-07
 2.98397e-07
 2.70551e-07
 2.46168e-07
 2.24743e-07
 2.05848e-07
 1.89123e-07
 1.74267e-07
 1.61024e-07
 1.49179e-07
 1.38549e-07
 1.28979e-07
 1.20339e-07
 8.69460e-07
 7.54558e-07
 6.56852e-07
 5.74347e-07
 5.04764e-07
 4.45966e-07
 3.96096e-07
 3.53600e-07
 3.17205e-07
 2.85869e-07
 2.58747e-07
 2.35154e-07
 2.14527e-07
 1.96408e-07
 1.80420e-07
 1.66253e-07
 1.53647e-07
 1.42387e-07
 1.32294e-07
 1.23213e-07
 1.02391e-06
 8.66362e-07
 7.39050e-07
 6.35735e-07
 5.51313e-07
 4.81769e-07
 4.24001e-07
 3.75618e-07
 3.34775e-07
 3.00036e-07
 2.70281e-07
 2.44626e-07
 2.22370e-07
 2.02952e-07
 1.85919e-07
 1.70903e-07
 1.57604e-07
 1.45773e-07
 1.35206e-07
 1.25731e-07
 1.18900e-06
 9.80864e-07
 8.20456e-07
 6.94932e-07
 5.95239e-07
 5.14960e-07
 4.49490e-07
 3.95480e-07
 3.50455e-07
 3.12564e-07
 2.80398e-07
 2.52878e-07
 2.29161e-07
 2.08587e-07
 1.90630e-07
 1.74869e-07
 1.60965e-07
 1.48638e-07
 1.37662e-07
 1.27848e-07
 1.35225e-06
 1.08955e-06
 8.95358e-07
 7.48088e-07
 6.33921e-07
 5.43725e-07
 4.71290e-07
 4.12277e-07
 3.63591e-07
 3.22972e-07
 2.88743e-07
 2.59640e-07
 2.34694e-07
 2.13154e-07
 1.94430e-07
 1.78056e-07
 1.63654e-07
 1.50923e-07
 1.39614e-07
 1.29525e-07
 1.49551e-06
 1.18158e-06
 9.57108e-07
 7.91007e-07
 6.64635e-07
 5.66254e-07
 4.88166e-07
 4.25153e-07
 3.73573e-07
 3.30821e-07
 2.94994e-07
 2.64674e-07
 2.38790e-07
 2.16518e-07
 1.97217e-07
 1.80381e-07
 1.65609e-07
 1.52577e-07
 1.41022e-07
 1.30729e-07
 1.59818e-06
 1.24571e-06
 9.99229e-07
 8.19786e-07
 6.84939e-07
 5.80964e-07
 4.99068e-07
 4.33391e-07
 3.79903e-07
 3.35758e-07
 2.98895e-07
 2.67793e-07
 2.41310e-07
 2.18574e-07
 1.98908e-07
 1.81783e-07
 1.66780e-07
 1.53561e-07
 1.41854e-07
 1.31437e-07
 1.64311e-06
 1.27308e-06
 1.01681e-06
 8.31552e-07
 6.93073e-07
 5.86742e-07
 5.03265e-07
 4.36498e-07
 3.82242e-07
 3.37544e-07
 3.00276e-07
 2.68872e-07
 2.42162e-07
 2.19251e-07
 1.99451e-07
 1.82222e-07
 1.67136e-07
 1.53851e-07
 1.42092e-07
 1.31633e-07
 1.62254e-06
 1.25976e-06
 1.00770e-06
 8.25059e-07
 6.88287e-07
 5.83114e-07
 5.00451e-07
 4.34272e-07
 3.80452e-07
 3.36083e-07
 2.99067e-07
 2.67862e-07
 2.41309e-07
 2.18524e-07
 1.98827e-07
 1.81682e-07
 1.66665e-07
 1.53439e-07
 1.41729e-07
 1.31311e-07
 1.54057e-06
 1.20777e-06
 9.73007e-07
 8.00945e-07
 6.70966e-07
 5.70327e-07
 4.90788e-07
 4.26824e-07
 3.74609e-07
 3.31429e-07
 2.95311e-07
 2.64793e-07
 2.38774e-07
 2.16411e-07
 1.97049e-07
 1.80173e-07
 1.65377e-07
 1.52331e-07
 1.40770e-07
 1.30476e-07
 1.41115e-06
 1.12438e-06
 9.16749e-07
 7.61572e-07
 6.42561e-07
 5.49304e-07
 4.74885e-07
 4.14563e-07
 3.64999e-07
 3.23786e-07
 2.89152e-07
 2.59772e-07
 2.34638e-07
 2.12971e-07
 1.94163e-07
 1.77733e-07
 1.63298e-07
 1.50549e-07
 1.39233e-07
 1.29143e-07
 1.25329e-06
 1.01990e-06
 8.44866e-07
 7.10513e-07
 6.05307e-07
 5.21491e-07
 4.53703e-07
 3.98148e-07
 3.52081e-07
 3.13479e-07
 2.80828e-07
 2.52974e-07
 2.29031e-07
 2.08303e-07
 1.90245e-07
 1.74420e-07
 1.60477e-07
 1.48130e-07
 1.37147e-07
 1.27334e-07
 1.08581e-06
 9.05243e-07
 7.63941e-07
 6.51882e-07
 5.61855e-07
 4.88644e-07
 4.28435e-07
 3.78405e-07
 3.36439e-07
 3.00931e-07
 2.70646e-07
 2.44628e-07
 2.22125e-07
 2.02540e-07
 1.85398e-07
 1.70313e-07
 1.56974e-07
 1.45124e-07
 1.34553e-07
 1.25083e-07
 9.23549e-07
 7.89850e-07
 6.80062e-07
 5.89681e-07
 5.14889e-07
 4.52598e-07
 4.00358e-07
 3.56240e-07
 3.18726e-07
 2.86617e-07
 2.58962e-07
 2.35000e-07
 2.14123e-07
 1.95837e-07
 1.79741e-07
 1.65507e-07
 1.52865e-07
 1.41591e-07
 1.31497e-07
 1.22428e-07
 7.75865e-07
 6.80561e-07
 5.98076e-07
 5.27323e-07
 4.66821e-07
 4.15072e-07
 3.70710e-07
 3.32554e-07
 2.99607e-07
 2.71034e-07
 2.46147e-07
 2.24374e-07
 2.05243e-07
 1.88363e-07
 1.73408e-07
 1.60107e-07
 1.48234e-07
 1.37597e-07
 1.28035e-07
 1.19412e-07
 6.47107e-07
 5.81457e-07
 5.21315e-07
 4.67385e-07
 4.19602e-07
 3.77530e-07
 3.40591e-07
 3.08177e-07
 2.79708e-07
 2.54660e-07
 2.32570e-07
 2.13035e-07
 1.95708e-07
 1.80293e-07
 1.66537e-07
 1.54224e-07
 1.43169e-07
 1.33215e-07
 1.24225e-07
 1.16085e-07
 5.38034e-07
 4.94318e-07
 4.51684e-07
 4.11574e-07
 3.74652e-07
 3.41117e-07
 3.10907e-07
 2.83818e-07
 2.59588e-07
 2.37933e-07
 2.18575e-07
 2.01255e-07
 1.85734e-07
 1.71801e-07
 1.59268e-07
 1.47969e-07
 1.37762e-07
 1.28518e-07
 1.20129e-07
 1.12497e-07
 4.47315e-07
 4.19316e-07
 3.89960e-07
 3.60833e-07
 3.32887e-07
 3.06644e-07
 2.82344e-07
 2.60048e-07
 2.39712e-07
 2.21230e-07
 2.04469e-07
 1.89281e-07
 1.75521e-07
 1.63048e-07
 1.51732e-07
 1.41452e-07
 1.32101e-07
 1.23582e-07
 1.15806e-07
 1.08698e-07
