# vtk DataFile Version 2.0
gauge_2
ASCII
DATASET POLYDATA
POINTS 113 double
0.2 0.0314993 0.005
0.2 0.0329993 0.005
0.2 0.0344993 0.005
0.2 0.0359992 0.005
0.2 0.0374992 0.005
0.2 0.0389992 0.005
0.2 0.0404991 0.005
0.2 0.0419991 0.005
0.2 0.0434991 0.005
0.2 0.044999 0.005
0.2 0.046499 0.005
0.2 0.047999 0.005
0.2 0.0511894 0.005
0.2 0.0543799 0.005
0.2 0.0575704 0.005
0.2 0.0607609 0.005
0.2 0.0639514 0.005
0.2 0.0671419 0.005
0.2 0.0703323 0.005
0.2 0.0735228 0.005
0.2 0.0767133 0.005
0.2 0.0799038 0.005
0.2 0.0830943 0.005
0.2 0.0862847 0.005
0.2 0.0894752 0.005
0.2 0.0926657 0.005
0.2 0.0958562 0.005
0.2 0.0990467 0.005
0.2 0.105428 0.005
0.2 0.111809 0.005
0.2 0.124571 0.005
0.2 0.137332 0.005
0.2 0.150094 0.005
0.2 0.162856 0.005
0.2 0.175618 0.005
0.2 0.18838 0.005
0.2 0.201142 0.005
0.2 0.213904 0.005
0.2 0.226666 0.005
0.2 0.239428 0.005
0.2 0.25219 0.005
0.2 0.264952 0.005
0.2 0.277714 0.005
0.2 0.290476 0.005
0.2 0.303238 0.005
0.2 0.315999 0.005
0.2 0.32238 0.005
0.2 0.325571 0.005
0.2 0.328761 0.005
0.2 0.331952 0.005
0.2 0.335142 0.005
0.2 0.338333 0.005
0.2 0.341523 0.005
0.2 0.344714 0.005
0.2 0.347904 0.005
0.2 0.351095 0.005
0.2 0.354285 0.005
0.2 0.357476 0.005
0.2 0.360666 0.005
0.2 0.363857 0.005
0.2 0.367047 0.005
0.2 0.370238 0.005
0.2 0.373428 0.005
0.2 0.379809 0.005
0.2 0.392571 0.005
0.2 0.398952 0.005
0.2 0.402142 0.005
0.2 0.405333 0.005
0.2 0.408523 0.005
0.2 0.411714 0.005
0.2 0.414904 0.005
0.2 0.418095 0.005
0.2 0.421285 0.005
0.2 0.424476 0.005
0.2 0.427666 0.005
0.2 0.430857 0.005
0.2 0.434047 0.005
0.2 0.437238 0.005
0.2 0.440428 0.005
0.2 0.443619 0.005
0.2 0.446809 0.005
0.2 0.45 0.005
0.2 0.45319 0.005
0.2 0.456381 0.005
0.2 0.459571 0.005
0.2 0.462762 0.005
0.2 0.465952 0.005
0.2 0.469143 0.005
0.2 0.472333 0.005
0.2 0.475524 0.005
0.2 0.478714 0.005
0.2 0.481905 0.005
0.2 0.485095 0.005
0.2 0.488286 0.005
0.2 0.491476 0.005
0.2 0.494666 0.005
0.2 0.497857 0.005
0.2 0.501047 0.005
0.2 0.504238 0.005
0.2 0.507428 0.005
0.2 0.510619 0.005
0.2 0.513809 0.005
0.2 0.517 0.005
0.2 0.52019 0.005
0.2 0.523381 0.005
0.2 0.526571 0.005
0.2 0.529762 0.005
0.2 0.532952 0.005
0.2 0.536143 0.005
0.2 0.539333 0.005
0.2 0.542524 0.005
0.2 0.545714 0.005
0.2 0.552095 0.005
POINT_DATA 113
 FIELD attributes 1
alpha.water 1 113 float
1 1 1 1 1 1 1 1 1 1 1 1 1 1 1 1 1 0.999992 0.999972 0.999933 0.999945 0.999239 0.976179 0.866445 0.721174 0.159155 6.74047e-12 5.60469e-11 3.90215e-10 4.87123e-10 4.15038e-10 3.82839e-10 3.33954e-10 1.89546e-10 3.83822e-11 5.46411e-14 2.78458e-14 1.3477e-16 2.71247e-18 1.96336e-18 1.61344e-16 6.4008e-15 2.91414e-13 2.15475e-11 1.38537e-09 1.42398e-07 3.36363e-05 0.00113612 0.00391379 0.011918 0.00532907 0.00270653 0.000772423 0.00482113 0.00349666 0.00356228 0.00351687 0.00749462 0.00247764 0.00177746 0.000978775 0.000198262 4.62273e-06 6.63657e-08 7.33188e-08 2.44012e-07 9.26514e-05 0.000377438 0.000349827 0.000481982 0.000264587 0.0003869 0.00232483 0.000864517 0.000321363 1.10849e-05 -6.15675e-05 0.000437677 0.00162963 0.00360143 0.00833212 0.00457203 0.00255545 0.000823836 0.000404515 0.000415641 0.000386667 0.000137657 -1.67541e-05 7.52549e-05 4.14654e-05 0.000432228 0.00344083 0.00166681 0.00124059 0.00189055 0.00868524 0.00621128 0.00542047 0.00306934 -0.000334274 0.000766638 0.00104039 0.000611121 -0.000230947 0.00095372 0.00222407 0.00262135 -0.000729399 1.78449e-06 -1.65063e-15 -1.25183e-17 -9.0736e-19
