# vtk DataFile Version 2.0
gauge_2
ASCII
DATASET POLYDATA
POINTS 70 double
0.2 0.0314993 0.005
0.2 0.0329993 0.005
0.2 0.0344993 0.005
0.2 0.0359992 0.005
0.2 0.0374992 0.005
0.2 0.0389992 0.005
0.2 0.0404991 0.005
0.2 0.0419991 0.005
0.2 0.0434991 0.005
0.2 0.044999 0.005
0.2 0.046499 0.005
0.2 0.047999 0.005
0.2 0.0511894 0.005
0.2 0.0543799 0.005
0.2 0.0575704 0.005
0.2 0.0607609 0.005
0.2 0.0639514 0.005
0.2 0.0671419 0.005
0.2 0.0703323 0.005
0.2 0.0735228 0.005
0.2 0.0767133 0.005
0.2 0.0799038 0.005
0.2 0.0830943 0.005
0.2 0.0862847 0.005
0.2 0.0894752 0.005
0.2 0.0926657 0.005
0.2 0.0958562 0.005
0.2 0.0990467 0.005
0.2 0.102237 0.005
0.2 0.105428 0.005
0.2 0.108618 0.005
0.2 0.111809 0.005
0.2 0.114999 0.005
0.2 0.11819 0.005
0.2 0.124571 0.005
0.2 0.130952 0.005
0.2 0.137332 0.005
0.2 0.150094 0.005
0.2 0.162856 0.005
0.2 0.175618 0.005
0.2 0.18838 0.005
0.2 0.201142 0.005
0.2 0.213904 0.005
0.2 0.226666 0.005
0.2 0.239428 0.005
0.2 0.25219 0.005
0.2 0.264952 0.005
0.2 0.277714 0.005
0.2 0.290476 0.005
0.2 0.303238 0.005
0.2 0.315999 0.005
0.2 0.328761 0.005
0.2 0.341523 0.005
0.2 0.354285 0.005
0.2 0.367047 0.005
0.2 0.379809 0.005
0.2 0.392571 0.005
0.2 0.405333 0.005
0.2 0.418095 0.005
0.2 0.430857 0.005
0.2 0.443619 0.005
0.2 0.456381 0.005
0.2 0.469143 0.005
0.2 0.481905 0.005
0.2 0.494666 0.005
0.2 0.507428 0.005
0.2 0.52019 0.005
0.2 0.532952 0.005
0.2 0.545714 0.005
0.2 0.558476 0.005
POINT_DATA 70
 FIELD attributes 1
alpha.water 1 70 float
1 1 1 1 1 1 1 1 1 1 1 1 1 1 1 1 1 1 1 1 1 1 1 0.999998 0.999998 0.999938 0.999856 0.999776 1.00905 0.869563 0.405283 0.0349902 2.79032e-06 1.90793e-07 1.4823e-07 1.5281e-07 4.48168e-07 1.33381e-06 7.09904e-08 5.73418e-07 6.14434e-07 4.29297e-08 6.57437e-12 8.30137e-12 3.14255e-12 1.23012e-13 9.06331e-14 1.06012e-13 4.99712e-14 9.09426e-16 4.80569e-17 2.6597e-17 1.77958e-16 1.22949e-15 6.10777e-15 2.39942e-14 5.37567e-14 3.5541e-14 1.47455e-15 7.34287e-16 3.79397e-18 4.78991e-20 7.4528e-22 7.74698e-24 3.33908e-26 4.62758e-29 4.31669e-32 2.54691e-35 7.35854e-39 6.91178e-43
