# vtk DataFile Version 2.0
gauge_2
ASCII
DATASET POLYDATA
POINTS 101 double
0.2 0.0314993 0.005
0.2 0.0329993 0.005
0.2 0.0344993 0.005
0.2 0.0359992 0.005
0.2 0.0374992 0.005
0.2 0.0389992 0.005
0.2 0.0404991 0.005
0.2 0.0419991 0.005
0.2 0.0434991 0.005
0.2 0.044999 0.005
0.2 0.046499 0.005
0.2 0.047999 0.005
0.2 0.0511894 0.005
0.2 0.0543799 0.005
0.2 0.0575704 0.005
0.2 0.0607609 0.005
0.2 0.0639514 0.005
0.2 0.0671419 0.005
0.2 0.0703323 0.005
0.2 0.0735228 0.005
0.2 0.0767133 0.005
0.2 0.0799038 0.005
0.2 0.0830943 0.005
0.2 0.0862847 0.005
0.2 0.0926657 0.005
0.2 0.0990467 0.005
0.2 0.111809 0.005
0.2 0.124571 0.005
0.2 0.137332 0.005
0.2 0.150094 0.005
0.2 0.156475 0.005
0.2 0.162856 0.005
0.2 0.175618 0.005
0.2 0.18838 0.005
0.2 0.201142 0.005
0.2 0.213904 0.005
0.2 0.226666 0.005
0.2 0.239428 0.005
0.2 0.25219 0.005
0.2 0.258571 0.005
0.2 0.264952 0.005
0.2 0.268142 0.005
0.2 0.271333 0.005
0.2 0.274523 0.005
0.2 0.277714 0.005
0.2 0.280904 0.005
0.2 0.284095 0.005
0.2 0.290476 0.005
0.2 0.303238 0.005
0.2 0.309619 0.005
0.2 0.315999 0.005
0.2 0.31919 0.005
0.2 0.32238 0.005
0.2 0.325571 0.005
0.2 0.328761 0.005
0.2 0.331952 0.005
0.2 0.335142 0.005
0.2 0.338333 0.005
0.2 0.341523 0.005
0.2 0.344714 0.005
0.2 0.347904 0.005
0.2 0.351095 0.005
0.2 0.354285 0.005
0.2 0.357476 0.005
0.2 0.360666 0.005
0.2 0.363857 0.005
0.2 0.367047 0.005
0.2 0.370238 0.005
0.2 0.373428 0.005
0.2 0.376619 0.005
0.2 0.379809 0.005
0.2 0.383 0.005
0.2 0.38619 0.005
0.2 0.389381 0.005
0.2 0.392571 0.005
0.2 0.395762 0.005
0.2 0.398952 0.005
0.2 0.402142 0.005
0.2 0.405333 0.005
0.2 0.408523 0.005
0.2 0.411714 0.005
0.2 0.414904 0.005
0.2 0.418095 0.005
0.2 0.421285 0.005
0.2 0.424476 0.005
0.2 0.427666 0.005
0.2 0.430857 0.005
0.2 0.434047 0.005
0.2 0.437238 0.005
0.2 0.443619 0.005
0.2 0.45 0.005
0.2 0.456381 0.005
0.2 0.462762 0.005
0.2 0.469143 0.005
0.2 0.481905 0.005
0.2 0.494666 0.005
0.2 0.507428 0.005
0.2 0.52019 0.005
0.2 0.532952 0.005
0.2 0.545714 0.005
0.2 0.558476 0.005
POINT_DATA 101
 FIELD attributes 1
alpha.water 1 101 float
1 1 1 1 1 1 1 1 1 1 1 1 1 0.999999 0.999997 0.999991 1 0.992326 0.919553 0.613381 0.250468 2.72966e-11 5.11156e-11 5.51605e-11 1.836e-10 3.05622e-10 3.02665e-10 3.01352e-09 5.41839e-09 2.80302e-08 1.98732e-06 4.16613e-06 4.54669e-06 1.29273e-05 7.32408e-05 2.65226e-05 3.11622e-06 3.09385e-08 1.71214e-08 8.75891e-08 0.000119429 0.000196839 0.00066366 0.00076147 0.000471531 -2.00517e-06 4.92721e-05 3.45244e-05 2.29408e-05 1.67266e-05 7.28306e-06 1.79199e-05 0.00235979 0.00792449 0.0118798 0.0176863 0.00773983 0.00425745 0.00351127 0.00059915 0.000630116 0.000640712 0.000535159 0.000597179 3.14592e-05 2.48168e-05 7.78456e-05 0.000351231 0.00061205 0.000807866 0.00060073 -0.000367592 0.000246224 0.000656024 0.000987594 0.00179434 0.000673587 0.0005443 0.00114231 0.00338953 0.00160391 0.00159104 0.00109405 -0.000430864 0.000731781 0.000752106 0.000449544 5.12055e-05 1.66043e-05 0.000290378 0.000487282 9.57715e-05 9.52349e-06 2.11392e-05 3.27692e-05 1.66493e-05 3.51673e-08 2.8602e-15 2.71741e-15 -1.77007e-18 -1.96118e-23
