# Observer      : 0
# Position      : (2.00000000e-01 1.70000000e-01 -1.00000000e-02)
# Time          	p(Curle)        
100             2.25202654e-07
100.01          2.25838314e-07
100.02          2.26423454e-07
100.03          2.27069547e-07
100.04          2.27730505e-07
100.05          2.28378239e-07
100.06          2.29088706e-07
100.07          2.29775426e-07
100.08          2.30417127e-07
100.09          2.31111638e-07
100.1           2.31817436e-07
100.11          2.32502201e-07
100.12          2.33250911e-07
100.13          2.34019683e-07
100.14          2.34760050e-07
100.15          2.35528855e-07
100.16          2.36218309e-07
100.17          2.36992481e-07
100.18          2.37734759e-07
100.19          2.38516749e-07
100.2           2.39331648e-07
100.21          2.40139037e-07
100.22          2.40898843e-07
100.23          2.41682060e-07
100.24          2.42532539e-07
100.25          2.43391681e-07
100.26          2.44206624e-07
100.27          2.45046356e-07
100.28          2.45915241e-07
100.29          2.46783919e-07
100.3           2.47603162e-07
100.31          2.48496903e-07
100.32          2.49410148e-07
100.33          2.50323125e-07
100.34          2.51232529e-07
100.35          2.52080702e-07
100.36          2.53000105e-07
100.37          2.53952983e-07
100.38          2.54905520e-07
100.39          2.55842410e-07
100.4           2.56799417e-07
100.41          2.57737230e-07
100.42          2.58736789e-07
100.43          2.59708014e-07
100.44          2.60665182e-07
100.45          2.61677664e-07
100.46          2.62691982e-07
100.47          2.63650630e-07
100.48          2.64688351e-07
100.49          2.65728073e-07
100.5           2.66736478e-07
100.51          2.67808676e-07
100.52          2.68860331e-07
100.53          2.69864440e-07
100.54          2.70939062e-07
100.55          2.71990220e-07
100.56          2.73073073e-07
100.57          2.74151935e-07
100.58          2.75223313e-07
100.59          2.76366632e-07
100.6           2.77443085e-07
100.61          2.78522045e-07
100.62          2.79651797e-07
100.63          2.80779258e-07
100.64          2.81906124e-07
100.65          2.83076300e-07
100.66          2.84232764e-07
100.67          2.85323814e-07
100.68          2.86521901e-07
100.69          2.87649463e-07
100.7           2.88827053e-07
100.71          2.90020419e-07
100.72          2.91215729e-07
100.73          2.92411600e-07
100.74          2.93622284e-07
100.75          2.94785776e-07
100.76          2.96013536e-07
100.77          2.97213566e-07
100.78          2.98441727e-07
100.79          2.99689215e-07
100.8           3.00924604e-07
100.81          3.02219382e-07
100.82          3.03393740e-07
100.83          3.04639471e-07
100.84          3.05881440e-07
100.85          3.07189269e-07
100.86          3.08413438e-07
100.87          3.09738295e-07
100.88          3.11023605e-07
100.89          3.12334454e-07
100.9           3.13572561e-07
100.91          3.14894205e-07
100.92          3.16151272e-07
100.93          3.17529562e-07
100.94          3.18824892e-07
100.95          3.20139772e-07
100.96          3.21508758e-07
100.97          3.22829303e-07
100.98          3.24117132e-07
100.99          3.25475072e-07
101             3.26822451e-07
101.01          3.28177487e-07
101.02          3.29581063e-07
101.03          3.30901655e-07
101.04          3.32308828e-07
101.05          3.33701232e-07
101.06          3.35049487e-07
101.07          3.36410523e-07
101.08          3.37816826e-07
101.09          3.39199393e-07
101.1           3.40630376e-07
101.11          3.42009768e-07
101.12          3.43438035e-07
101.13          3.44845235e-07
101.14          3.46248542e-07
101.15          3.47626789e-07
101.16          3.49057710e-07
101.17          3.50474520e-07
101.18          3.51952818e-07
101.19          3.53367319e-07
101.2           3.54808103e-07
101.21          3.56268561e-07
101.22          3.57726015e-07
101.23          3.59114428e-07
101.24          3.60599353e-07
101.25          3.62050433e-07
101.26          3.63550425e-07
101.27          3.64939712e-07
101.28          3.66439717e-07
101.29          3.67913016e-07
101.3           3.69397478e-07
101.31          3.70860810e-07
101.32          3.72349228e-07
101.33          3.73803545e-07
101.34          3.75330110e-07
101.35          3.76777311e-07
101.36          3.78281468e-07
101.37          3.79808896e-07
101.38          3.81306695e-07
101.39          3.82827525e-07
101.4           3.84298004e-07
101.41          3.85766631e-07
101.42          3.87292751e-07
101.43          3.88797913e-07
101.44          3.90296922e-07
101.45          3.91825442e-07
101.46          3.93370709e-07
101.47          3.94892730e-07
101.48          3.96409991e-07
101.49          3.97889269e-07
101.5           3.99450532e-07
101.51          4.00971234e-07
101.52          4.02489702e-07
101.53          4.04005701e-07
101.54          4.05593876e-07
101.55          4.07085477e-07
101.56          4.08642995e-07
101.57          4.10180818e-07
101.58          4.11692986e-07
101.59          4.13210359e-07
101.6           4.14751857e-07
101.61          4.16304947e-07
101.62          4.17859477e-07
101.63          4.19413158e-07
101.64          4.20980451e-07
101.65          4.22552888e-07
101.66          4.24051685e-07
101.67          4.25569286e-07
101.68          4.27139650e-07
101.69          4.28665849e-07
101.7           4.30208395e-07
101.71          4.31784516e-07
101.72          4.33330767e-07
101.73          4.34892139e-07
101.74          4.36458310e-07
101.75          4.37969693e-07
101.76          4.39520253e-07
101.77          4.41083741e-07
101.78          4.42621607e-07
101.79          4.44168734e-07
101.8           4.45743242e-07
101.81          4.47324500e-07
101.82          4.48839698e-07
101.83          4.50427735e-07
101.84          4.51957129e-07
101.85          4.53488286e-07
101.86          4.55018613e-07
101.87          4.56618170e-07
101.88          4.58151673e-07
101.89          4.59703410e-07
101.9           4.61264867e-07
101.91          4.62815005e-07
101.92          4.64370523e-07
101.93          4.65900312e-07
101.94          4.67453056e-07
101.95          4.68954344e-07
101.96          4.70481019e-07
101.97          4.71980666e-07
101.98          4.73541496e-07
101.99          4.75082420e-07
102             4.76632615e-07
102.01          4.78178515e-07
102.02          4.79681098e-07
102.03          4.81200015e-07
102.04          4.82735894e-07
102.05          4.84252613e-07
102.06          4.85772522e-07
102.07          4.87327519e-07
102.08          4.88816406e-07
102.09          4.90343029e-07
102.1           4.91836301e-07
102.11          4.93347325e-07
102.12          4.94855841e-07
102.13          4.96377438e-07
102.14          4.97887081e-07
102.15          4.99376490e-07
102.16          5.00894621e-07
102.17          5.02402213e-07
102.18          5.03900433e-07
102.19          5.05396929e-07
102.2           5.06861110e-07
102.21          5.08329799e-07
102.22          5.09797581e-07
102.23          5.11271169e-07
102.24          5.12751615e-07
102.25          5.14252491e-07
102.26          5.15731823e-07
102.27          5.17213302e-07
102.28          5.18663703e-07
102.29          5.20123611e-07
102.3           5.21564191e-07
102.31          5.23020436e-07
102.32          5.24472688e-07
102.33          5.25887314e-07
102.34          5.27350534e-07
102.35          5.28788314e-07
102.36          5.30239907e-07
102.37          5.31652879e-07
102.38          5.33086810e-07
102.39          5.34503235e-07
102.4           5.35909866e-07
102.41          5.37331157e-07
102.42          5.38726209e-07
102.43          5.40166684e-07
102.44          5.41579522e-07
102.45          5.42941089e-07
102.46          5.44363464e-07
102.47          5.45716199e-07
102.48          5.47086392e-07
102.49          5.48456099e-07
102.5           5.49842812e-07
102.51          5.51195316e-07
102.52          5.52582750e-07
102.53          5.53948226e-07
102.54          5.55308170e-07
102.55          5.56692953e-07
102.56          5.58056073e-07
102.57          5.59349995e-07
102.58          5.60675031e-07
102.59          5.62007938e-07
102.6           5.63315230e-07
102.61          5.64664049e-07
102.62          5.66041385e-07
102.63          5.67333912e-07
102.64          5.68539385e-07
102.65          5.69847857e-07
102.66          5.71136777e-07
102.67          5.72422494e-07
102.68          5.73706799e-07
102.69          5.74940535e-07
102.7           5.76228898e-07
102.71          5.77520973e-07
102.72          5.78762720e-07
102.73          5.79995382e-07
102.74          5.81263577e-07
102.75          5.82497087e-07
102.76          5.83703491e-07
102.77          5.84949592e-07
102.78          5.86150931e-07
102.79          5.87398301e-07
102.8           5.88615482e-07
102.81          5.89771414e-07
102.82          5.90981177e-07
102.83          5.92143091e-07
102.84          5.93312400e-07
102.85          5.94501556e-07
102.86          5.95665084e-07
102.87          5.96818650e-07
102.88          5.97979045e-07
102.89          5.99142312e-07
102.9           6.00283808e-07
102.91          6.01439597e-07
102.92          6.02506463e-07
102.93          6.03611713e-07
102.94          6.04723136e-07
102.95          6.05807446e-07
102.96          6.06915284e-07
102.97          6.08030193e-07
102.98          6.09122787e-07
102.99          6.10182894e-07
103             6.11275999e-07
103.01          6.12296602e-07
103.02          6.13346437e-07
103.03          6.14375011e-07
103.04          6.15403167e-07
103.05          6.16406364e-07
103.06          6.17440490e-07
103.07          6.18453479e-07
103.08          6.19514685e-07
103.09          6.20542618e-07
103.1           6.21482691e-07
103.11          6.22459782e-07
103.12          6.23452753e-07
103.13          6.24428318e-07
103.14          6.25377622e-07
103.15          6.26251255e-07
103.16          6.27208447e-07
103.17          6.28142698e-07
103.18          6.29077987e-07
103.19          6.29965917e-07
103.2           6.30878059e-07
103.21          6.31758343e-07
103.22          6.32638984e-07
103.23          6.33539152e-07
103.24          6.34454165e-07
103.25          6.35292692e-07
103.26          6.36147883e-07
103.27          6.36977571e-07
103.28          6.37788759e-07
103.29          6.38639200e-07
103.3           6.39449552e-07
103.31          6.40259864e-07
103.32          6.41038539e-07
103.33          6.41872271e-07
103.34          6.42655939e-07
103.35          6.43446174e-07
103.36          6.44183585e-07
103.37          6.44904608e-07
103.38          6.45653438e-07
103.39          6.46383504e-07
103.4           6.47118182e-07
103.41          6.47852964e-07
103.42          6.48570307e-07
103.43          6.49255337e-07
103.44          6.49970835e-07
103.45          6.50649567e-07
103.46          6.51282435e-07
103.47          6.51931156e-07
103.48          6.52584968e-07
103.49          6.53202124e-07
103.5           6.53866892e-07
103.51          6.54507384e-07
103.52          6.55120877e-07
103.53          6.55729353e-07
103.54          6.56296149e-07
103.55          6.56911083e-07
103.56          6.57492861e-07
103.57          6.58025625e-07
103.58          6.58570950e-07
103.59          6.59146541e-07
103.6           6.59630672e-07
103.61          6.60168658e-07
103.62          6.60715370e-07
103.63          6.61170375e-07
103.64          6.61670691e-07
103.65          6.62164219e-07
103.66          6.62638804e-07
103.67          6.63072906e-07
103.68          6.63555761e-07
103.69          6.64005524e-07
103.7           6.64421545e-07
103.71          6.64851836e-07
103.72          6.65247048e-07
103.73          6.65642289e-07
103.74          6.66017957e-07
103.75          6.66402865e-07
103.76          6.66783539e-07
103.77          6.67166933e-07
103.78          6.67490721e-07
103.79          6.67843144e-07
103.8           6.68141614e-07
103.81          6.68465357e-07
103.82          6.68782070e-07
103.83          6.69074485e-07
103.84          6.69362132e-07
103.85          6.69636326e-07
103.86          6.69932821e-07
103.87          6.70154362e-07
103.88          6.70397802e-07
103.89          6.70611265e-07
103.9           6.70824005e-07
103.91          6.71064100e-07
103.92          6.71251416e-07
103.93          6.71436013e-07
103.94          6.71628265e-07
103.95          6.71785012e-07
103.96          6.72000620e-07
103.97          6.72098223e-07
103.98          6.72177175e-07
103.99          6.72318593e-07
104             6.72469134e-07
104.01          6.72587174e-07
104.02          6.72662859e-07
104.03          6.72739174e-07
104.04          6.72793089e-07
104.05          6.72871013e-07
104.06          6.72897322e-07
104.07          6.72909686e-07
104.08          6.72929948e-07
104.09          6.72969314e-07
104.1           6.72964963e-07
104.11          6.72958867e-07
104.12          6.72952637e-07
104.13          6.72944159e-07
104.14          6.72908722e-07
104.15          6.72796126e-07
104.16          6.72787801e-07
104.17          6.72651337e-07
104.18          6.72559572e-07
104.19          6.72469182e-07
104.2           6.72399976e-07
104.21          6.72293330e-07
104.22          6.72154081e-07
104.23          6.72036363e-07
104.24          6.71857141e-07
104.25          6.71683840e-07
104.26          6.71502269e-07
104.27          6.71314643e-07
104.28          6.71118589e-07
104.29          6.70913859e-07
104.3           6.70708379e-07
104.31          6.70483279e-07
104.32          6.70219332e-07
104.33          6.69960919e-07
104.34          6.69736637e-07
104.35          6.69443803e-07
104.36          6.69118854e-07
104.37          6.68850916e-07
104.38          6.68565304e-07
104.39          6.68252888e-07
104.4           6.67933580e-07
104.41          6.67563752e-07
104.42          6.67196272e-07
104.43          6.66848794e-07
104.44          6.66496737e-07
104.45          6.66063400e-07
104.46          6.65662373e-07
104.47          6.65314611e-07
104.48          6.64858056e-07
104.49          6.64384915e-07
104.5           6.63987364e-07
104.51          6.63531928e-07
104.52          6.63082683e-07
104.53          6.62635071e-07
104.54          6.62106105e-07
104.55          6.61653196e-07
104.56          6.61157706e-07
104.57          6.60623905e-07
104.58          6.60060690e-07
104.59          6.59542538e-07
104.6           6.59005849e-07
104.61          6.58437909e-07
104.62          6.57835219e-07
104.63          6.57289474e-07
104.64          6.56677802e-07
104.65          6.56128284e-07
104.66          6.55502016e-07
104.67          6.54863908e-07
104.68          6.54213840e-07
104.69          6.53546697e-07
104.7           6.52896617e-07
104.71          6.52272085e-07
104.72          6.51563670e-07
104.73          6.50848329e-07
104.74          6.50135410e-07
104.75          6.49465350e-07
104.76          6.48767491e-07
104.77          6.48030748e-07
104.78          6.47306440e-07
104.79          6.46547931e-07
104.8           6.45807516e-07
104.81          6.45026108e-07
104.82          6.44239837e-07
104.83          6.43522744e-07
104.84          6.42677192e-07
104.85          6.41846600e-07
104.86          6.41003593e-07
104.87          6.40196025e-07
104.88          6.39401495e-07
104.89          6.38575176e-07
104.9           6.37628542e-07
104.91          6.36761566e-07
104.92          6.35928873e-07
104.93          6.35008715e-07
104.94          6.34114717e-07
104.95          6.33148262e-07
104.96          6.32262375e-07
104.97          6.31348928e-07
104.98          6.30430087e-07
104.99          6.29450479e-07
105             6.28522869e-07
105.01          6.27513852e-07
105.02          6.26528406e-07
105.03          6.25568295e-07
105.04          6.24552355e-07
105.05          6.23577493e-07
105.06          6.22576815e-07
105.07          6.21501672e-07
105.08          6.20465602e-07
105.09          6.19484580e-07
105.1           6.18405310e-07
105.11          6.17316297e-07
105.12          6.16223761e-07
105.13          6.15112299e-07
105.14          6.14077331e-07
105.15          6.12955186e-07
105.16          6.11876847e-07
105.17          6.10759510e-07
105.18          6.09631105e-07
105.19          6.08454545e-07
105.2           6.07316110e-07
105.21          6.06145145e-07
105.22          6.05003260e-07
105.23          6.03866113e-07
105.24          6.02652471e-07
105.25          6.01456847e-07
105.26          6.00268803e-07
105.27          5.99056959e-07
105.28          5.97804122e-07
105.29          5.96570790e-07
105.3           5.95369221e-07
105.31          5.94207273e-07
105.32          5.92904378e-07
105.33          5.91648234e-07
105.34          5.90366604e-07
105.35          5.89119726e-07
105.36          5.87777503e-07
105.37          5.86503123e-07
105.38          5.85219823e-07
105.39          5.83939254e-07
105.4           5.82627783e-07
105.41          5.81223277e-07
105.42          5.79943132e-07
105.43          5.78598978e-07
105.44          5.77214484e-07
105.45          5.75912800e-07
105.46          5.74585810e-07
105.47          5.73176145e-07
105.48          5.71871725e-07
105.49          5.70407975e-07
105.5           5.69048314e-07
105.51          5.67620269e-07
105.52          5.66215976e-07
105.53          5.64847192e-07
105.54          5.63397057e-07
105.55          5.61968679e-07
105.56          5.60556570e-07
105.57          5.59083423e-07
105.58          5.57648274e-07
105.59          5.56164274e-07
105.6           5.54711120e-07
105.61          5.53339735e-07
105.62          5.51813349e-07
105.63          5.50333725e-07
105.64          5.48863807e-07
105.65          5.47354070e-07
105.66          5.45849025e-07
105.67          5.44299098e-07
105.68          5.42834444e-07
105.69          5.41306499e-07
105.7           5.39806765e-07
105.71          5.38247988e-07
105.72          5.36735803e-07
105.73          5.35131608e-07
105.74          5.33618334e-07
105.75          5.32069493e-07
105.76          5.30522949e-07
105.77          5.28957081e-07
105.78          5.27398214e-07
105.79          5.25821252e-07
105.8           5.24232737e-07
105.81          5.22608451e-07
105.82          5.21065943e-07
105.83          5.19434904e-07
105.84          5.17834586e-07
105.85          5.16213657e-07
105.86          5.14601603e-07
105.87          5.13015321e-07
105.88          5.11351189e-07
105.89          5.09739148e-07
105.9           5.08159555e-07
105.91          5.06485156e-07
105.92          5.04830973e-07
105.93          5.03189966e-07
105.94          5.01533943e-07
105.95          4.99899376e-07
105.96          4.98231742e-07
105.97          4.96559006e-07
105.98          4.94889561e-07
105.99          4.93201160e-07
106             4.91515052e-07
106.01          4.89838973e-07
106.02          4.88133346e-07
106.03          4.86485847e-07
106.04          4.84814320e-07
106.05          4.83097168e-07
106.06          4.81414699e-07
106.07          4.79711260e-07
106.08          4.77998535e-07
106.09          4.76264205e-07
106.1           4.74568097e-07
106.11          4.72795652e-07
106.12          4.71094476e-07
106.13          4.69409528e-07
106.14          4.67664561e-07
106.15          4.65932488e-07
106.16          4.64186393e-07
106.17          4.62500333e-07
106.18          4.60720561e-07
106.19          4.58989143e-07
106.2           4.57230986e-07
106.21          4.55541824e-07
106.22          4.53795251e-07
106.23          4.52010890e-07
106.24          4.50253199e-07
106.25          4.48498162e-07
106.26          4.46724511e-07
106.27          4.44955184e-07
106.28          4.43203518e-07
106.29          4.41403164e-07
106.3           4.39721656e-07
106.31          4.37936584e-07
106.32          4.36176510e-07
106.33          4.34391081e-07
106.34          4.32651507e-07
106.35          4.30856692e-07
106.36          4.29068398e-07
106.37          4.27263937e-07
106.38          4.25488285e-07
106.39          4.23755019e-07
106.4           4.21962886e-07
106.41          4.20168738e-07
106.42          4.18369786e-07
106.43          4.16629563e-07
106.44          4.14851663e-07
106.45          4.13060663e-07
106.46          4.11267979e-07
106.47          4.09495257e-07
106.48          4.07746832e-07
106.49          4.05926865e-07
106.5           4.04114271e-07
106.51          4.02359384e-07
106.52          4.00582683e-07
106.53          3.98775760e-07
106.54          3.96980898e-07
106.55          3.95189995e-07
106.56          3.93422136e-07
106.57          3.91686141e-07
106.58          3.89879029e-07
106.59          3.88095513e-07
106.6           3.86312420e-07
106.61          3.84542231e-07
106.62          3.82706222e-07
106.63          3.80925897e-07
106.64          3.79122918e-07
106.65          3.77354936e-07
106.66          3.75590105e-07
106.67          3.73786429e-07
106.68          3.72015343e-07
106.69          3.70247853e-07
106.7           3.68536731e-07
106.71          3.66741283e-07
106.72          3.64991242e-07
106.73          3.63223784e-07
106.74          3.61452715e-07
106.75          3.59644314e-07
106.76          3.57937640e-07
106.77          3.56177857e-07
106.78          3.54410812e-07
106.79          3.52661416e-07
106.8           3.50875151e-07
106.81          3.49126902e-07
106.82          3.47405442e-07
106.83          3.45687590e-07
106.84          3.43927804e-07
106.85          3.42191114e-07
106.86          3.40460743e-07
106.87          3.38718153e-07
106.88          3.36989715e-07
106.89          3.35233242e-07
106.9           3.33509124e-07
106.91          3.31777895e-07
106.92          3.30029282e-07
106.93          3.28359472e-07
106.94          3.26669397e-07
106.95          3.24977179e-07
106.96          3.23275566e-07
106.97          3.21578424e-07
106.98          3.19873498e-07
106.99          3.18152529e-07
107             3.16412503e-07
107.01          3.14749382e-07
107.02          3.13115170e-07
107.03          3.11433301e-07
107.04          3.09747583e-07
107.05          3.08104458e-07
107.06          3.06462342e-07
107.07          3.04764634e-07
107.08          3.03119075e-07
107.09          3.01445600e-07
107.1           2.99838485e-07
107.11          2.98198197e-07
107.12          2.96578173e-07
107.13          2.94917087e-07
107.14          2.93323294e-07
107.15          2.91713205e-07
107.16          2.90048646e-07
107.17          2.88432288e-07
107.18          2.86883965e-07
107.19          2.85280487e-07
107.2           2.83737183e-07
107.21          2.82123128e-07
107.22          2.80529685e-07
107.23          2.78943831e-07
107.24          2.77404035e-07
107.25          2.75756161e-07
107.26          2.74215722e-07
107.27          2.72667132e-07
107.28          2.71077966e-07
107.29          2.69629235e-07
107.3           2.68158908e-07
107.31          2.66622930e-07
107.32          2.65111812e-07
107.33          2.63623761e-07
107.34          2.62062217e-07
107.35          2.60568505e-07
107.36          2.59089228e-07
107.37          2.57607653e-07
107.38          2.56147912e-07
107.39          2.54674338e-07
107.4           2.53231185e-07
107.41          2.51804428e-07
107.42          2.50342983e-07
107.43          2.48903194e-07
107.44          2.47462910e-07
107.45          2.46036442e-07
107.46          2.44632827e-07
107.47          2.43282508e-07
107.48          2.41861464e-07
107.49          2.40468145e-07
107.5           2.39055724e-07
107.51          2.37703362e-07
107.52          2.36364279e-07
107.53          2.35006615e-07
107.54          2.33656772e-07
107.55          2.32327996e-07
107.56          2.31009308e-07
107.57          2.29647612e-07
107.58          2.28366186e-07
107.59          2.27074087e-07
107.6           2.25784779e-07
107.61          2.24481060e-07
107.62          2.23178565e-07
107.63          2.21918124e-07
107.64          2.20705192e-07
107.65          2.19488154e-07
107.66          2.18227985e-07
107.67          2.17008271e-07
107.68          2.15817533e-07
107.69          2.14570508e-07
107.7           2.13332740e-07
107.71          2.12126761e-07
107.72          2.10934579e-07
107.73          2.09786817e-07
107.74          2.08642945e-07
107.75          2.07463762e-07
107.76          2.06388954e-07
107.77          2.05287759e-07
107.78          2.04141935e-07
107.79          2.02995521e-07
107.8           2.01909721e-07
107.81          2.00815546e-07
107.82          1.99737845e-07
107.83          1.98684462e-07
107.84          1.97596082e-07
107.85          1.96606537e-07
107.86          1.95575248e-07
107.87          1.94532081e-07
107.88          1.93494722e-07
107.89          1.92499244e-07
107.9           1.91453837e-07
107.91          1.90530320e-07
107.92          1.89571055e-07
107.93          1.88609840e-07
107.94          1.87627543e-07
107.95          1.86756045e-07
107.96          1.85802632e-07
107.97          1.84893369e-07
107.98          1.83957766e-07
107.99          1.83061389e-07
108             1.82193651e-07
108.01          1.81333650e-07
108.02          1.80513595e-07
108.03          1.79626876e-07
108.04          1.78803261e-07
108.05          1.77962508e-07
108.06          1.77160060e-07
108.07          1.76349259e-07
108.08          1.75610016e-07
108.09          1.74846429e-07
108.1           1.74049433e-07
108.11          1.73309295e-07
108.12          1.72585644e-07
108.13          1.71819307e-07
108.14          1.71081354e-07
108.15          1.70351332e-07
108.16          1.69695123e-07
108.17          1.69032847e-07
108.18          1.68405735e-07
108.19          1.67741437e-07
108.2           1.67097060e-07
108.21          1.66490568e-07
108.22          1.65854712e-07
108.23          1.65230261e-07
108.24          1.64618679e-07
108.25          1.64008083e-07
108.26          1.63541229e-07
108.27          1.62990802e-07
108.28          1.62454316e-07
108.29          1.61955429e-07
108.3           1.61379899e-07
108.31          1.60833974e-07
108.32          1.60368923e-07
108.33          1.59900514e-07
108.34          1.59425917e-07
108.35          1.58982273e-07
108.36          1.58586101e-07
108.37          1.58152635e-07
108.38          1.57734948e-07
108.39          1.57347144e-07
108.4           1.56918284e-07
108.41          1.56552262e-07
108.42          1.56197202e-07
108.43          1.55872208e-07
108.44          1.55514624e-07
108.45          1.55200734e-07
108.46          1.54917714e-07
108.47          1.54646765e-07
108.48          1.54364062e-07
108.49          1.54068520e-07
108.5           1.53759408e-07
108.51          1.53555351e-07
108.52          1.53368315e-07
108.53          1.53100559e-07
108.54          1.52904046e-07
108.55          1.52732125e-07
108.56          1.52582539e-07
108.57          1.52407585e-07
108.58          1.52309199e-07
108.59          1.52079806e-07
108.6           1.52015604e-07
108.61          1.51914290e-07
108.62          1.51814708e-07
108.63          1.51728746e-07
108.64          1.51656693e-07
108.65          1.51596398e-07
108.66          1.51589240e-07
108.67          1.51570810e-07
108.68          1.51539964e-07
108.69          1.51526547e-07
108.7           1.51552437e-07
108.71          1.51576314e-07
108.72          1.51632674e-07
108.73          1.51692351e-07
108.74          1.51708971e-07
108.75          1.51832465e-07
108.76          1.51920536e-07
108.77          1.52025682e-07
108.78          1.52107413e-07
108.79          1.52275064e-07
108.8           1.52455238e-07
108.81          1.52620031e-07
108.82          1.52814781e-07
108.83          1.52974552e-07
108.84          1.53199978e-07
108.85          1.53375050e-07
108.86          1.53648096e-07
108.87          1.53849520e-07
108.88          1.54134954e-07
108.89          1.54402562e-07
108.9           1.54687560e-07
108.91          1.54990139e-07
108.92          1.55258951e-07
108.93          1.55578390e-07
108.94          1.56007777e-07
108.95          1.56357025e-07
108.96          1.56648000e-07
108.97          1.57040519e-07
108.98          1.57444823e-07
108.99          1.57873506e-07
109             1.58269453e-07
109.01          1.58672582e-07
109.02          1.59124331e-07
109.03          1.59619317e-07
109.04          1.60107836e-07
109.05          1.60508342e-07
109.06          1.61106495e-07
109.07          1.61634072e-07
109.08          1.62150272e-07
109.09          1.62655221e-07
109.1           1.63244306e-07
109.11          1.63712983e-07
109.12          1.64338573e-07
109.13          1.64949121e-07
109.14          1.65540163e-07
109.15          1.66151914e-07
109.16          1.66782847e-07
109.17          1.67457871e-07
109.18          1.68055990e-07
109.19          1.68757022e-07
109.2           1.69406623e-07
109.21          1.70145868e-07
109.22          1.70869290e-07
109.23          1.71560010e-07
109.24          1.72280131e-07
109.25          1.73059907e-07
109.26          1.73807825e-07
109.27          1.74563220e-07
109.28          1.75375568e-07
109.29          1.76140361e-07
109.3           1.76967980e-07
109.31          1.77782475e-07
109.32          1.78744739e-07
109.33          1.79502037e-07
109.34          1.80313992e-07
109.35          1.81160266e-07
109.36          1.82033707e-07
109.37          1.82890858e-07
109.38          1.83825984e-07
109.39          1.84772664e-07
109.4           1.85655106e-07
109.41          1.86608986e-07
109.42          1.87602405e-07
109.43          1.88548681e-07
109.44          1.89513523e-07
109.45          1.90462197e-07
109.46          1.91420572e-07
109.47          1.92558726e-07
109.48          1.93573828e-07
109.49          1.94592052e-07
109.5           1.95639715e-07
109.51          1.96674135e-07
109.52          1.97751536e-07
109.53          1.98831017e-07
109.54          1.99899752e-07
109.55          2.00987353e-07
109.56          2.02141016e-07
109.57          2.03236578e-07
109.58          2.04396649e-07
109.59          2.05578375e-07
109.6           2.06709737e-07
109.61          2.07801623e-07
109.62          2.09047122e-07