# f [Hz] vs SPL(f) [dB]
# Lower frequency: 2.50000000e+01
# Upper frequency: 5.00000000e+01
# Window model  : Hanning
# Window number : 3
# Window samples: 4096
# Window overlap %: 5.00000000e+01
# dBRef         : 2.00000000e-05
# Area average  : true
# Area sum      : 8.99999982e-02
# Number of faces: 400
# f             	SPL(f)          
2.50000000e+01	-1.61046450e+02
2.50244141e+01	-1.58312013e+02
2.50488281e+01	-1.57761792e+02
2.50732422e+01	-1.57113454e+02
2.50976562e+01	-1.57411568e+02
2.51220703e+01	-1.58663394e+02
2.51464844e+01	-1.59784697e+02
2.51708984e+01	-1.58923511e+02
2.51953125e+01	-1.60299707e+02
2.52197266e+01	-1.61447114e+02
2.52441406e+01	-1.64094435e+02
2.52685547e+01	-1.57714634e+02
2.52929688e+01	-1.55673001e+02
2.53173828e+01	-1.59978162e+02
2.53417969e+01	-1.61200827e+02
2.53662109e+01	-1.59278536e+02
2.53906250e+01	-1.58075728e+02
2.54150391e+01	-1.60798619e+02
2.54394531e+01	-1.61372006e+02
2.54638672e+01	-1.64378143e+02
2.54882812e+01	-1.57849783e+02
2.55126953e+01	-1.59700350e+02
2.55371094e+01	-1.61534431e+02
2.55615234e+01	-1.61684947e+02
2.55859375e+01	-1.61437031e+02
2.56103516e+01	-1.60915623e+02
2.56347656e+01	-1.62638269e+02
2.56591797e+01	-1.64636376e+02
2.56835938e+01	-1.61222536e+02
2.57080078e+01	-1.53867684e+02
2.57324219e+01	-1.51025227e+02
2.57568359e+01	-1.55760298e+02
2.57812500e+01	-1.58050299e+02
2.58056641e+01	-1.59664064e+02
2.58300781e+01	-1.57760786e+02
2.58544922e+01	-1.59652503e+02
2.58789062e+01	-1.61732681e+02
2.59033203e+01	-1.61610100e+02
2.59277344e+01	-1.57692474e+02
2.59521484e+01	-1.54725053e+02
2.59765625e+01	-1.56266052e+02
2.60009766e+01	-1.59965275e+02
2.60253906e+01	-1.63259207e+02
2.60498047e+01	-1.59583600e+02
2.60742188e+01	-1.59727118e+02
2.60986328e+01	-1.63296531e+02
2.61230469e+01	-1.60687043e+02
2.61474609e+01	-1.59015465e+02
2.61718750e+01	-1.55827747e+02
2.61962891e+01	-1.59540734e+02
2.62207031e+01	-1.63065434e+02
2.62451172e+01	-1.61763686e+02
2.62695312e+01	-1.59201133e+02
2.62939453e+01	-1.60325502e+02
2.63183594e+01	-1.62755831e+02
2.63427734e+01	-1.57511878e+02
2.63671875e+01	-1.58103425e+02
2.63916016e+01	-1.62163588e+02
2.64160156e+01	-1.61954663e+02
2.64404297e+01	-1.61085993e+02
2.64648438e+01	-1.63647056e+02
2.64892578e+01	-1.60466230e+02
2.65136719e+01	-1.59863395e+02
2.65380859e+01	-1.61778398e+02
2.65625000e+01	-1.58334243e+02
2.65869141e+01	-1.59116920e+02
2.66113281e+01	-1.61970793e+02
2.66357422e+01	-1.65307311e+02
2.66601562e+01	-1.65094003e+02
2.66845703e+01	-1.61770820e+02
2.67089844e+01	-1.56870918e+02
2.67333984e+01	-1.59241676e+02
2.67578125e+01	-1.66885252e+02
2.67822266e+01	-1.65761579e+02
2.68066406e+01	-1.60515631e+02
2.68310547e+01	-1.59343704e+02
2.68554688e+01	-1.59678728e+02
2.68798828e+01	-1.62200596e+02
2.69042969e+01	-1.58955046e+02
2.69287109e+01	-1.57704630e+02
2.69531250e+01	-1.62758541e+02
2.69775391e+01	-1.63532296e+02
2.70019531e+01	-1.61375999e+02
2.70263672e+01	-1.61165861e+02
2.70507812e+01	-1.55926341e+02
2.70751953e+01	-1.57157387e+02
2.70996094e+01	-1.59375955e+02
2.71240234e+01	-1.59503398e+02
2.71484375e+01	-1.55929635e+02
2.71728516e+01	-1.57862294e+02
2.71972656e+01	-1.60324876e+02
2.72216797e+01	-1.59793121e+02
2.72460938e+01	-1.57403801e+02
2.72705078e+01	-1.55215533e+02
2.72949219e+01	-1.57336045e+02
2.73193359e+01	-1.59813095e+02
2.73437500e+01	-1.61006876e+02
2.73681641e+01	-1.63509537e+02
2.73925781e+01	-1.62546623e+02
2.74169922e+01	-1.59640144e+02
2.74414062e+01	-1.60072511e+02
2.74658203e+01	-1.63835753e+02
2.74902344e+01	-1.62072577e+02
2.75146484e+01	-1.61729630e+02
2.75390625e+01	-1.60431204e+02
2.75634766e+01	-1.61302069e+02
2.75878906e+01	-1.58895983e+02
2.76123047e+01	-1.60271997e+02
2.76367188e+01	-1.64455726e+02
2.76611328e+01	-1.61905985e+02
2.76855469e+01	-1.57231855e+02
2.77099609e+01	-1.55922060e+02
2.77343750e+01	-1.55315811e+02
2.77587891e+01	-1.61619889e+02
2.77832031e+01	-1.62948694e+02
2.78076172e+01	-1.58799866e+02
2.78320312e+01	-1.58905007e+02
2.78564453e+01	-1.64975881e+02
2.78808594e+01	-1.60994935e+02
2.79052734e+01	-1.58278405e+02
2.79296875e+01	-1.56124792e+02
2.79541016e+01	-1.58457663e+02
2.79785156e+01	-1.61755321e+02
2.80029297e+01	-1.61094080e+02
2.80273438e+01	-1.61580357e+02
2.80517578e+01	-1.61737789e+02
2.80761719e+01	-1.62361126e+02
2.81005859e+01	-1.60863799e+02
2.81250000e+01	-1.60742094e+02
2.81494141e+01	-1.58468495e+02
2.81738281e+01	-1.60736895e+02
2.81982422e+01	-1.66031462e+02
2.82226562e+01	-1.66503534e+02
2.82470703e+01	-1.63862052e+02
2.82714844e+01	-1.65068243e+02
2.82958984e+01	-1.65273135e+02
2.83203125e+01	-1.65379029e+02
2.83447266e+01	-1.59521156e+02
2.83691406e+01	-1.53262858e+02
2.83935547e+01	-1.54897241e+02
2.84179688e+01	-1.61089928e+02
2.84423828e+01	-1.62924133e+02
2.84667969e+01	-1.60161058e+02
2.84912109e+01	-1.58392991e+02
2.85156250e+01	-1.61642581e+02
2.85400391e+01	-1.62856817e+02
2.85644531e+01	-1.59802657e+02
2.85888672e+01	-1.58758669e+02
2.86132812e+01	-1.61541540e+02
2.86376953e+01	-1.62002699e+02
2.86621094e+01	-1.64147463e+02
2.86865234e+01	-1.59315402e+02
2.87109375e+01	-1.58317241e+02
2.87353516e+01	-1.63877703e+02
2.87597656e+01	-1.63031653e+02
2.87841797e+01	-1.63040689e+02
2.88085938e+01	-1.59298656e+02
2.88330078e+01	-1.59531155e+02
2.88574219e+01	-1.60986662e+02
2.88818359e+01	-1.61629977e+02
2.89062500e+01	-1.65247096e+02
2.89306641e+01	-1.64980854e+02
2.89550781e+01	-1.61657742e+02
2.89794922e+01	-1.57357883e+02
2.90039062e+01	-1.57193258e+02
2.90283203e+01	-1.56727310e+02
2.90527344e+01	-1.59708255e+02
2.90771484e+01	-1.64309660e+02
2.91015625e+01	-1.66139984e+02
2.91259766e+01	-1.64843155e+02
2.91503906e+01	-1.65730228e+02
2.91748047e+01	-1.64968918e+02
2.91992188e+01	-1.63515520e+02
2.92236328e+01	-1.63503455e+02
2.92480469e+01	-1.58904185e+02
2.92724609e+01	-1.56325482e+02
2.92968750e+01	-1.59797442e+02
2.93212891e+01	-1.64014094e+02
2.93457031e+01	-1.63625276e+02
2.93701172e+01	-1.63191290e+02
2.93945312e+01	-1.61585884e+02
2.94189453e+01	-1.62565292e+02
2.94433594e+01	-1.62309667e+02
2.94677734e+01	-1.60776090e+02
2.94921875e+01	-1.61543005e+02
2.95166016e+01	-1.63991622e+02
2.95410156e+01	-1.61527045e+02
2.95654297e+01	-1.62395331e+02
2.95898438e+01	-1.62354079e+02
2.96142578e+01	-1.63477706e+02
2.96386719e+01	-1.63912013e+02
2.96630859e+01	-1.60697115e+02
2.96875000e+01	-1.57812366e+02
2.97119141e+01	-1.61737142e+02
2.97363281e+01	-1.60661620e+02
2.97607422e+01	-1.61698303e+02
2.97851562e+01	-1.61572090e+02
2.98095703e+01	-1.62999611e+02
2.98339844e+01	-1.61609307e+02
2.98583984e+01	-1.61813223e+02
2.98828125e+01	-1.60656035e+02
2.99072266e+01	-1.57942337e+02
2.99316406e+01	-1.58382628e+02
2.99560547e+01	-1.61470369e+02
2.99804688e+01	-1.64783102e+02
3.00048828e+01	-1.59259503e+02
3.00292969e+01	-1.61761294e+02
3.00537109e+01	-1.62853666e+02
3.00781250e+01	-1.61144084e+02
3.01025391e+01	-1.59579190e+02
3.01269531e+01	-1.56377423e+02
3.01513672e+01	-1.57800164e+02
3.01757812e+01	-1.60157666e+02
3.02001953e+01	-1.66296723e+02
3.02246094e+01	-1.65060952e+02
3.02490234e+01	-1.63385748e+02
3.02734375e+01	-1.62018951e+02
3.02978516e+01	-1.65038745e+02
3.03222656e+01	-1.63033958e+02
3.03466797e+01	-1.58387978e+02
3.03710938e+01	-1.56919599e+02
3.03955078e+01	-1.61862718e+02
3.04199219e+01	-1.67319051e+02
3.04443359e+01	-1.63670847e+02
3.04687500e+01	-1.61550218e+02
3.04931641e+01	-1.64439625e+02
3.05175781e+01	-1.62151662e+02
3.05419922e+01	-1.59549746e+02
3.05664062e+01	-1.54259618e+02
3.05908203e+01	-1.53650556e+02
3.06152344e+01	-1.59230612e+02
3.06396484e+01	-1.62008237e+02
3.06640625e+01	-1.61308536e+02
3.06884766e+01	-1.60210494e+02
3.07128906e+01	-1.62780634e+02
3.07373047e+01	-1.61606460e+02
3.07617188e+01	-1.57111124e+02
3.07861328e+01	-1.52616608e+02
3.08105469e+01	-1.54290300e+02
3.08349609e+01	-1.59705973e+02
3.08593750e+01	-1.59586572e+02
3.08837891e+01	-1.61521861e+02
3.09082031e+01	-1.60052668e+02
3.09326172e+01	-1.59650170e+02
3.09570312e+01	-1.60742134e+02
3.09814453e+01	-1.61973918e+02
3.10058594e+01	-1.59549109e+02
3.10302734e+01	-1.60043267e+02
3.10546875e+01	-1.60344057e+02
3.10791016e+01	-1.61985161e+02
3.11035156e+01	-1.63127289e+02
3.11279297e+01	-1.61633293e+02
3.11523438e+01	-1.63583398e+02
3.11767578e+01	-1.66856738e+02
3.12011719e+01	-1.63937602e+02
3.12255859e+01	-1.60933862e+02
3.12500000e+01	-1.60036356e+02
3.12744141e+01	-1.57683703e+02
3.12988281e+01	-1.57260648e+02
3.13232422e+01	-1.60705563e+02
3.13476562e+01	-1.60612538e+02
3.13720703e+01	-1.60182593e+02
3.13964844e+01	-1.59400882e+02
3.14208984e+01	-1.57888879e+02
3.14453125e+01	-1.56285518e+02
3.14697266e+01	-1.56851323e+02
3.14941406e+01	-1.57834804e+02
3.15185547e+01	-1.57234455e+02
3.15429688e+01	-1.61161738e+02
3.15673828e+01	-1.63024615e+02
3.15917969e+01	-1.64513826e+02
3.16162109e+01	-1.64466618e+02
3.16406250e+01	-1.59200441e+02
3.16650391e+01	-1.54712872e+02
3.16894531e+01	-1.56955490e+02
3.17138672e+01	-1.64658888e+02
3.17382812e+01	-1.65101652e+02
3.17626953e+01	-1.63742599e+02
3.17871094e+01	-1.62104135e+02
3.18115234e+01	-1.60049408e+02
3.18359375e+01	-1.59149184e+02
3.18603516e+01	-1.55819991e+02
3.18847656e+01	-1.52160940e+02
3.19091797e+01	-1.55320761e+02
3.19335938e+01	-1.60686866e+02
3.19580078e+01	-1.61040363e+02
3.19824219e+01	-1.61894126e+02
3.20068359e+01	-1.61752953e+02
3.20312500e+01	-1.60017259e+02
3.20556641e+01	-1.56909260e+02
3.20800781e+01	-1.54174139e+02
3.21044922e+01	-1.54450254e+02
3.21289062e+01	-1.55685029e+02
3.21533203e+01	-1.56234633e+02
3.21777344e+01	-1.59206073e+02
3.22021484e+01	-1.57314058e+02
3.22265625e+01	-1.55675878e+02
3.22509766e+01	-1.59110540e+02
3.22753906e+01	-1.63853674e+02
3.22998047e+01	-1.59302237e+02
3.23242188e+01	-1.56638714e+02
3.23486328e+01	-1.61083399e+02
3.23730469e+01	-1.60307084e+02
3.23974609e+01	-1.55842856e+02
3.24218750e+01	-1.54700944e+02
3.24462891e+01	-1.54023782e+02
3.24707031e+01	-1.55326469e+02
3.24951172e+01	-1.55956137e+02
3.25195312e+01	-1.56716835e+02
3.25439453e+01	-1.54591232e+02
3.25683594e+01	-1.56094656e+02
3.25927734e+01	-1.59092300e+02
3.26171875e+01	-1.58997947e+02
3.26416016e+01	-1.56717756e+02
3.26660156e+01	-1.55370119e+02
3.26904297e+01	-1.56030311e+02
3.27148438e+01	-1.57662562e+02
3.27392578e+01	-1.59607672e+02
3.27636719e+01	-1.54867353e+02
3.27880859e+01	-1.56233407e+02
3.28125000e+01	-1.61740996e+02
3.28369141e+01	-1.59042298e+02
3.28613281e+01	-1.56437020e+02
3.28857422e+01	-1.55525513e+02
3.29101562e+01	-1.59553161e+02
3.29345703e+01	-1.60337262e+02
3.29589844e+01	-1.55106982e+02
3.29833984e+01	-1.52689940e+02
3.30078125e+01	-1.54065340e+02
3.30322266e+01	-1.60350866e+02
3.30566406e+01	-1.63031681e+02
3.30810547e+01	-1.62425043e+02
3.31054688e+01	-1.64174302e+02
3.31298828e+01	-1.60819495e+02
3.31542969e+01	-1.61045411e+02
3.31787109e+01	-1.61295503e+02
3.32031250e+01	-1.59275855e+02
3.32275391e+01	-1.60204158e+02
3.32519531e+01	-1.58923013e+02
3.32763672e+01	-1.59743618e+02
3.33007812e+01	-1.61374934e+02
3.33251953e+01	-1.59784411e+02
3.33496094e+01	-1.59219622e+02
3.33740234e+01	-1.62276284e+02
3.33984375e+01	-1.60867258e+02
3.34228516e+01	-1.59077305e+02
3.34472656e+01	-1.60579512e+02
3.34716797e+01	-1.59459554e+02
3.34960938e+01	-1.59705490e+02
3.35205078e+01	-1.58201783e+02
3.35449219e+01	-1.57559425e+02
3.35693359e+01	-1.60739389e+02
3.35937500e+01	-1.59948970e+02
3.36181641e+01	-1.58273013e+02
3.36425781e+01	-1.57467568e+02
3.36669922e+01	-1.57088979e+02
3.36914062e+01	-1.59507794e+02
3.37158203e+01	-1.55752056e+02
3.37402344e+01	-1.53435705e+02
3.37646484e+01	-1.54349549e+02
3.37890625e+01	-1.59298901e+02
3.38134766e+01	-1.58178862e+02
3.38378906e+01	-1.57976801e+02
3.38623047e+01	-1.55676759e+02
3.38867188e+01	-1.56631149e+02
3.39111328e+01	-1.57602995e+02
3.39355469e+01	-1.57956093e+02
3.39599609e+01	-1.55255399e+02
3.39843750e+01	-1.54139519e+02
3.40087891e+01	-1.59260399e+02
3.40332031e+01	-1.62773951e+02
3.40576172e+01	-1.63006247e+02
3.40820312e+01	-1.62510826e+02
3.41064453e+01	-1.65038073e+02
3.41308594e+01	-1.59023202e+02
3.41552734e+01	-1.59859702e+02
3.41796875e+01	-1.62975957e+02
3.42041016e+01	-1.62616673e+02
3.42285156e+01	-1.61968063e+02
3.42529297e+01	-1.58169000e+02
3.42773438e+01	-1.57464013e+02
3.43017578e+01	-1.58111069e+02
3.43261719e+01	-1.56722821e+02
3.43505859e+01	-1.58417961e+02
3.43750000e+01	-1.61427384e+02
3.43994141e+01	-1.59557087e+02
3.44238281e+01	-1.61017644e+02
3.44482422e+01	-1.63546406e+02
3.44726562e+01	-1.62658160e+02
3.44970703e+01	-1.61701092e+02
3.45214844e+01	-1.59763921e+02
3.45458984e+01	-1.59891281e+02
3.45703125e+01	-1.59871021e+02
3.45947266e+01	-1.60225099e+02
3.46191406e+01	-1.59821927e+02
3.46435547e+01	-1.60465094e+02
3.46679688e+01	-1.64281906e+02
3.46923828e+01	-1.68634440e+02
3.47167969e+01	-1.62778972e+02
3.47412109e+01	-1.63934808e+02
3.47656250e+01	-1.60059173e+02
3.47900391e+01	-1.62313495e+02
3.48144531e+01	-1.61446697e+02
3.48388672e+01	-1.66418611e+02
3.48632812e+01	-1.61467728e+02
3.48876953e+01	-1.61950335e+02
3.49121094e+01	-1.61214374e+02
3.49365234e+01	-1.57068703e+02
3.49609375e+01	-1.54143337e+02
3.49853516e+01	-1.56300099e+02
3.50097656e+01	-1.62359081e+02
3.50341797e+01	-1.61756755e+02
3.50585938e+01	-1.61149679e+02
3.50830078e+01	-1.61153738e+02
3.51074219e+01	-1.62092013e+02
3.51318359e+01	-1.62010102e+02
3.51562500e+01	-1.60236461e+02
3.51806641e+01	-1.57233416e+02
3.52050781e+01	-1.58733082e+02
3.52294922e+01	-1.61087559e+02
3.52539062e+01	-1.60232188e+02
3.52783203e+01	-1.61443927e+02
3.53027344e+01	-1.60621906e+02
3.53271484e+01	-1.62416748e+02
3.53515625e+01	-1.61410307e+02
3.53759766e+01	-1.58082114e+02
3.54003906e+01	-1.59238560e+02
3.54248047e+01	-1.60482796e+02
3.54492188e+01	-1.63419666e+02
3.54736328e+01	-1.62775107e+02
3.54980469e+01	-1.59386127e+02
3.55224609e+01	-1.59913569e+02
3.55468750e+01	-1.61027189e+02
3.55712891e+01	-1.64116469e+02
3.55957031e+01	-1.63033049e+02
3.56201172e+01	-1.57691720e+02
3.56445312e+01	-1.56973773e+02
3.56689453e+01	-1.61566904e+02
3.56933594e+01	-1.62482071e+02
3.57177734e+01	-1.61830332e+02
3.57421875e+01	-1.63346962e+02
3.57666016e+01	-1.62038826e+02
3.57910156e+01	-1.59282911e+02
3.58154297e+01	-1.60269303e+02
3.58398438e+01	-1.56541141e+02
3.58642578e+01	-1.54532642e+02
3.58886719e+01	-1.60115010e+02
3.59130859e+01	-1.63134132e+02
3.59375000e+01	-1.60079095e+02
3.59619141e+01	-1.60113794e+02
3.59863281e+01	-1.62602339e+02
3.60107422e+01	-1.62240707e+02
3.60351562e+01	-1.61928689e+02
3.60595703e+01	-1.58604942e+02
3.60839844e+01	-1.58719567e+02
3.61083984e+01	-1.64543468e+02
3.61328125e+01	-1.65370852e+02
3.61572266e+01	-1.61940975e+02
3.61816406e+01	-1.61943514e+02
3.62060547e+01	-1.59508762e+02
3.62304688e+01	-1.58429249e+02
3.62548828e+01	-1.64902475e+02
3.62792969e+01	-1.64604447e+02
3.63037109e+01	-1.62120176e+02
3.63281250e+01	-1.61992762e+02
3.63525391e+01	-1.60589781e+02
3.63769531e+01	-1.59433372e+02
3.64013672e+01	-1.58899525e+02
3.64257812e+01	-1.60424061e+02
3.64501953e+01	-1.60748251e+02
3.64746094e+01	-1.64310236e+02
3.64990234e+01	-1.58550616e+02
3.65234375e+01	-1.59483001e+02
3.65478516e+01	-1.65180114e+02
3.65722656e+01	-1.63998135e+02
3.65966797e+01	-1.63890798e+02
3.66210938e+01	-1.65763828e+02
3.66455078e+01	-1.62529676e+02
3.66699219e+01	-1.62349949e+02
3.66943359e+01	-1.61022099e+02
3.67187500e+01	-1.58016916e+02
3.67431641e+01	-1.59229676e+02
3.67675781e+01	-1.61081734e+02
3.67919922e+01	-1.61318105e+02
3.68164062e+01	-1.61550770e+02
3.68408203e+01	-1.61380925e+02
3.68652344e+01	-1.61493719e+02
3.68896484e+01	-1.60079859e+02
3.69140625e+01	-1.60714054e+02
3.69384766e+01	-1.58041041e+02
3.69628906e+01	-1.58672040e+02
3.69873047e+01	-1.61463093e+02
3.70117188e+01	-1.60396995e+02
3.70361328e+01	-1.61207635e+02
3.70605469e+01	-1.62512518e+02
3.70849609e+01	-1.64594738e+02
3.71093750e+01	-1.62338471e+02
3.71337891e+01	-1.64281294e+02
3.71582031e+01	-1.59803000e+02
3.71826172e+01	-1.57670320e+02
3.72070312e+01	-1.62667864e+02
3.72314453e+01	-1.63036822e+02
3.72558594e+01	-1.64461854e+02
3.72802734e+01	-1.62910504e+02
3.73046875e+01	-1.62090830e+02
3.73291016e+01	-1.62484689e+02
3.73535156e+01	-1.62632570e+02
3.73779297e+01	-1.61560974e+02
3.74023438e+01	-1.68120047e+02
3.74267578e+01	-1.63283953e+02
3.74511719e+01	-1.63556645e+02
3.74755859e+01	-1.63673244e+02
3.75000000e+01	-1.60781691e+02
3.75244141e+01	-1.62051618e+02
3.75488281e+01	-1.62171106e+02
3.75732422e+01	-1.62324695e+02
3.75976562e+01	-1.59803614e+02
3.76220703e+01	-1.58393152e+02
3.76464844e+01	-1.62584012e+02
3.76708984e+01	-1.64860408e+02
3.76953125e+01	-1.65220783e+02
3.77197266e+01	-1.61879769e+02
3.77441406e+01	-1.60438604e+02
3.77685547e+01	-1.59675750e+02
3.77929688e+01	-1.61782669e+02
3.78173828e+01	-1.62165068e+02
3.78417969e+01	-1.62063684e+02
3.78662109e+01	-1.62796443e+02
3.78906250e+01	-1.64038335e+02
3.79150391e+01	-1.64512866e+02
3.79394531e+01	-1.59185446e+02
3.79638672e+01	-1.60863534e+02
3.79882812e+01	-1.62601130e+02
3.80126953e+01	-1.62113038e+02
3.80371094e+01	-1.62215080e+02
3.80615234e+01	-1.60155570e+02
3.80859375e+01	-1.58041249e+02
3.81103516e+01	-1.62207746e+02
3.81347656e+01	-1.62190894e+02
3.81591797e+01	-1.58249566e+02
3.81835938e+01	-1.58814000e+02
3.82080078e+01	-1.62246955e+02
3.82324219e+01	-1.64243406e+02
3.82568359e+01	-1.59481376e+02
3.82812500e+01	-1.56869744e+02
3.83056641e+01	-1.57381575e+02
3.83300781e+01	-1.64622829e+02
3.83544922e+01	-1.64629634e+02
3.83789062e+01	-1.61957694e+02
3.84033203e+01	-1.62103273e+02
3.84277344e+01	-1.65109775e+02
3.84521484e+01	-1.62286957e+02
3.84765625e+01	-1.57322840e+02
3.85009766e+01	-1.58348575e+02
3.85253906e+01	-1.61245320e+02
3.85498047e+01	-1.62920494e+02
3.85742188e+01	-1.64023541e+02
3.85986328e+01	-1.63419413e+02
3.86230469e+01	-1.64925393e+02
3.86474609e+01	-1.63485919e+02
3.86718750e+01	-1.62910597e+02
3.86962891e+01	-1.60372944e+02
3.87207031e+01	-1.59808036e+02
3.87451172e+01	-1.60962207e+02
3.87695312e+01	-1.61222111e+02
3.87939453e+01	-1.64315337e+02
3.88183594e+01	-1.61297439e+02
3.88427734e+01	-1.59911821e+02
3.88671875e+01	-1.62481351e+02
3.88916016e+01	-1.61837766e+02
3.89160156e+01	-1.60112187e+02
3.89404297e+01	-1.60290196e+02
3.89648438e+01	-1.60022229e+02
3.89892578e+01	-1.61397557e+02
3.90136719e+01	-1.62377808e+02
3.90380859e+01	-1.61996796e+02
3.90625000e+01	-1.60877540e+02
3.90869141e+01	-1.60214288e+02
3.91113281e+01	-1.60684325e+02
3.91357422e+01	-1.58800497e+02
3.91601562e+01	-1.59916217e+02
3.91845703e+01	-1.65177760e+02
3.92089844e+01	-1.63970399e+02
3.92333984e+01	-1.64884924e+02
3.92578125e+01	-1.62814189e+02
3.92822266e+01	-1.60156825e+02
3.93066406e+01	-1.62653132e+02
3.93310547e+01	-1.64629808e+02
3.93554688e+01	-1.63511925e+02
3.93798828e+01	-1.63381585e+02
3.94042969e+01	-1.63428096e+02
3.94287109e+01	-1.62273013e+02
3.94531250e+01	-1.65056890e+02
3.94775391e+01	-1.63891890e+02
3.95019531e+01	-1.59738125e+02
3.95263672e+01	-1.58739257e+02
3.95507812e+01	-1.61162788e+02
3.95751953e+01	-1.58659601e+02
3.95996094e+01	-1.56100689e+02
3.96240234e+01	-1.59803590e+02
3.96484375e+01	-1.62119067e+02
3.96728516e+01	-1.62872234e+02
3.96972656e+01	-1.61061298e+02
3.97216797e+01	-1.63052003e+02
3.97460938e+01	-1.62731469e+02
3.97705078e+01	-1.61354826e+02
3.97949219e+01	-1.59616325e+02
3.98193359e+01	-1.58123138e+02
3.98437500e+01	-1.63561832e+02
3.98681641e+01	-1.67475289e+02
3.98925781e+01	-1.64303163e+02
3.99169922e+01	-1.62242355e+02
3.99414062e+01	-1.62920642e+02
3.99658203e+01	-1.64493733e+02
3.99902344e+01	-1.60400737e+02
4.00146484e+01	-1.59349958e+02
4.00390625e+01	-1.59941203e+02
4.00634766e+01	-1.64028538e+02
4.00878906e+01	-1.65483100e+02
4.01123047e+01	-1.66829099e+02
4.01367188e+01	-1.64515810e+02
4.01611328e+01	-1.60886830e+02
4.01855469e+01	-1.61073005e+02
4.02099609e+01	-1.58982160e+02
4.02343750e+01	-1.58578477e+02
4.02587891e+01	-1.60319395e+02
4.02832031e+01	-1.63984241e+02
4.03076172e+01	-1.62337282e+02
4.03320312e+01	-1.61857200e+02
4.03564453e+01	-1.61358783e+02
4.03808594e+01	-1.63948806e+02
4.04052734e+01	-1.63484519e+02
4.04296875e+01	-1.64418399e+02
4.04541016e+01	-1.58818944e+02
4.04785156e+01	-1.58807423e+02
4.05029297e+01	-1.60380250e+02
4.05273438e+01	-1.61990322e+02
4.05517578e+01	-1.62881718e+02
4.05761719e+01	-1.61361874e+02
4.06005859e+01	-1.60440624e+02
4.06250000e+01	-1.62638950e+02
4.06494141e+01	-1.64216202e+02
4.06738281e+01	-1.66622476e+02
4.06982422e+01	-1.64153893e+02
4.07226562e+01	-1.66962646e+02
4.07470703e+01	-1.67868433e+02
4.07714844e+01	-1.66725890e+02
4.07958984e+01	-1.62718133e+02
4.08203125e+01	-1.60517181e+02
4.08447266e+01	-1.58997838e+02
4.08691406e+01	-1.60213376e+02
4.08935547e+01	-1.60264431e+02
4.09179688e+01	-1.59137382e+02
4.09423828e+01	-1.61064573e+02
4.09667969e+01	-1.68593598e+02
4.09912109e+01	-1.63309011e+02
4.10156250e+01	-1.59937714e+02
4.10400391e+01	-1.63007158e+02
4.10644531e+01	-1.62885473e+02
4.10888672e+01	-1.61285674e+02
4.11132812e+01	-1.63490299e+02
4.11376953e+01	-1.59200728e+02
4.11621094e+01	-1.60235931e+02
4.11865234e+01	-1.64233162e+02
4.12109375e+01	-1.62603634e+02
4.12353516e+01	-1.62673404e+02
4.12597656e+01	-1.58958913e+02
4.12841797e+01	-1.58458277e+02
4.13085938e+01	-1.62038778e+02
4.13330078e+01	-1.60506978e+02
4.13574219e+01	-1.57624690e+02
4.13818359e+01	-1.59276427e+02
4.14062500e+01	-1.64547929e+02
4.14306641e+01	-1.65848910e+02
4.14550781e+01	-1.62765053e+02
4.14794922e+01	-1.61997587e+02
4.15039062e+01	-1.63429500e+02
4.15283203e+01	-1.63795686e+02
4.15527344e+01	-1.62184586e+02
4.15771484e+01	-1.62892865e+02
4.16015625e+01	-1.63728427e+02
4.16259766e+01	-1.63302530e+02
4.16503906e+01	-1.62648710e+02
4.16748047e+01	-1.63366766e+02
4.16992188e+01	-1.62522721e+02
4.17236328e+01	-1.61102735e+02
4.17480469e+01	-1.63473413e+02
4.17724609e+01	-1.64671177e+02
4.17968750e+01	-1.62504099e+02
4.18212891e+01	-1.62359549e+02
4.18457031e+01	-1.63067357e+02
4.18701172e+01	-1.63807700e+02
4.18945312e+01	-1.61336497e+02
4.19189453e+01	-1.63698191e+02
4.19433594e+01	-1.65783204e+02
4.19677734e+01	-1.68296118e+02
4.19921875e+01	-1.64247590e+02
4.20166016e+01	-1.61964978e+02
4.20410156e+01	-1.62915993e+02
4.20654297e+01	-1.66630929e+02
4.20898438e+01	-1.61882933e+02
4.21142578e+01	-1.60325838e+02
4.21386719e+01	-1.61092188e+02
4.21630859e+01	-1.61147004e+02
4.21875000e+01	-1.61411483e+02
4.22119141e+01	-1.62273776e+02
4.22363281e+01	-1.60737035e+02
4.22607422e+01	-1.62143106e+02
4.22851562e+01	-1.65238918e+02
4.23095703e+01	-1.62942579e+02
4.23339844e+01	-1.61248481e+02
4.23583984e+01	-1.61343479e+02
4.23828125e+01	-1.64336555e+02
4.24072266e+01	-1.64290388e+02
4.24316406e+01	-1.58430121e+02
4.24560547e+01	-1.55685554e+02
4.24804688e+01	-1.58422036e+02
4.25048828e+01	-1.64944423e+02
4.25292969e+01	-1.62861490e+02
4.25537109e+01	-1.61450513e+02
4.25781250e+01	-1.63037429e+02
4.26025391e+01	-1.64055652e+02
4.26269531e+01	-1.61104130e+02
4.26513672e+01	-1.60022743e+02
4.26757812e+01	-1.61472292e+02
4.27001953e+01	-1.65484244e+02
4.27246094e+01	-1.63704074e+02
4.27490234e+01	-1.60471758e+02
4.27734375e+01	-1.59339777e+02
4.27978516e+01	-1.61105633e+02
4.28222656e+01	-1.62312168e+02
4.28466797e+01	-1.60491998e+02
4.28710938e+01	-1.57413451e+02
4.28955078e+01	-1.57271707e+02
4.29199219e+01	-1.66211532e+02
4.29443359e+01	-1.62185407e+02
4.29687500e+01	-1.65795972e+02
4.29931641e+01	-1.62624543e+02
4.30175781e+01	-1.60787073e+02
4.30419922e+01	-1.60121063e+02
4.30664062e+01	-1.61716568e+02
4.30908203e+01	-1.58087002e+02
4.31152344e+01	-1.56094852e+02
4.31396484e+01	-1.60203675e+02
4.31640625e+01	-1.61634205e+02
4.31884766e+01	-1.66425976e+02
4.32128906e+01	-1.64848915e+02
4.32373047e+01	-1.63263309e+02
4.32617188e+01	-1.65405264e+02
4.32861328e+01	-1.65317404e+02
4.33105469e+01	-1.67015277e+02
4.33349609e+01	-1.64693936e+02
4.33593750e+01	-1.64572853e+02
4.33837891e+01	-1.64316175e+02
4.34082031e+01	-1.65382041e+02
4.34326172e+01	-1.63370032e+02
4.34570312e+01	-1.61695761e+02
4.34814453e+01	-1.61788995e+02
4.35058594e+01	-1.63146218e+02
4.35302734e+01	-1.61296895e+02
4.35546875e+01	-1.59607357e+02
4.35791016e+01	-1.62047843e+02
4.36035156e+01	-1.64639665e+02
4.36279297e+01	-1.63884464e+02
4.36523438e+01	-1.61261567e+02
4.36767578e+01	-1.57997725e+02
4.37011719e+01	-1.60563448e+02
4.37255859e+01	-1.64530544e+02
4.37500000e+01	-1.60272810e+02
4.37744141e+01	-1.57470938e+02
4.37988281e+01	-1.62332638e+02
4.38232422e+01	-1.67628904e+02
4.38476562e+01	-1.66085202e+02
4.38720703e+01	-1.64630545e+02
4.38964844e+01	-1.64877929e+02
4.39208984e+01	-1.62865246e+02
4.39453125e+01	-1.64336765e+02
4.39697266e+01	-1.63143187e+02
4.39941406e+01	-1.61912668e+02
4.40185547e+01	-1.61419768e+02
4.40429688e+01	-1.63173388e+02
4.40673828e+01	-1.64277782e+02
4.40917969e+01	-1.63978449e+02
4.41162109e+01	-1.64837587e+02
4.41406250e+01	-1.66249452e+02
4.41650391e+01	-1.65433756e+02
4.41894531e+01	-1.64606733e+02
4.42138672e+01	-1.59670005e+02
4.42382812e+01	-1.60832845e+02
4.42626953e+01	-1.59683844e+02
4.42871094e+01	-1.59013243e+02
4.43115234e+01	-1.62525272e+02
4.43359375e+01	-1.61795320e+02
4.43603516e+01	-1.58170153e+02
4.43847656e+01	-1.57916598e+02
4.44091797e+01	-1.63272608e+02
4.44335938e+01	-1.63870364e+02
4.44580078e+01	-1.62282250e+02
4.44824219e+01	-1.59712155e+02
4.45068359e+01	-1.61861394e+02
4.45312500e+01	-1.61676104e+02
4.45556641e+01	-1.61423647e+02
4.45800781e+01	-1.60879166e+02
4.46044922e+01	-1.59027110e+02
4.46289062e+01	-1.56387377e+02
4.46533203e+01	-1.57769899e+02
4.46777344e+01	-1.60767609e+02
4.47021484e+01	-1.60360843e+02
4.47265625e+01	-1.59454249e+02
4.47509766e+01	-1.58977192e+02
4.47753906e+01	-1.58223342e+02
4.47998047e+01	-1.58934984e+02
4.48242188e+01	-1.58608932e+02
4.48486328e+01	-1.57412429e+02
4.48730469e+01	-1.56624441e+02
4.48974609e+01	-1.59013988e+02
4.49218750e+01	-1.60433791e+02
4.49462891e+01	-1.61634476e+02
4.49707031e+01	-1.57839277e+02
4.49951172e+01	-1.59700976e+02
4.50195312e+01	-1.60565216e+02
4.50439453e+01	-1.58755556e+02
4.50683594e+01	-1.57438607e+02
4.50927734e+01	-1.56276990e+02
4.51171875e+01	-1.57691794e+02
4.51416016e+01	-1.59683711e+02
4.51660156e+01	-1.60974931e+02
4.51904297e+01	-1.57993434e+02
4.52148438e+01	-1.58277283e+02
4.52392578e+01	-1.60080983e+02
4.52636719e+01	-1.63142920e+02
4.52880859e+01	-1.65085882e+02
4.53125000e+01	-1.62348129e+02
4.53369141e+01	-1.61141050e+02
4.53613281e+01	-1.63203385e+02
4.53857422e+01	-1.62229372e+02
4.54101562e+01	-1.59545668e+02
4.54345703e+01	-1.61861780e+02
4.54589844e+01	-1.63938665e+02
4.54833984e+01	-1.63276838e+02
4.55078125e+01	-1.62616594e+02
4.55322266e+01	-1.61521817e+02
4.55566406e+01	-1.62081336e+02
4.55810547e+01	-1.61273129e+02
4.56054688e+01	-1.64246849e+02
4.56298828e+01	-1.59011608e+02
4.56542969e+01	-1.57910369e+02
4.56787109e+01	-1.59763399e+02
4.57031250e+01	-1.59476847e+02
4.57275391e+01	-1.60120778e+02
4.57519531e+01	-1.60250237e+02
4.57763672e+01	-1.61343924e+02
4.58007812e+01	-1.62126656e+02
4.58251953e+01	-1.61480664e+02
4.58496094e+01	-1.58901842e+02
4.58740234e+01	-1.60060827e+02
4.58984375e+01	-1.61816614e+02
4.59228516e+01	-1.60900052e+02
4.59472656e+01	-1.60990563e+02
4.59716797e+01	-1.61344451e+02
4.59960938e+01	-1.64353206e+02
4.60205078e+01	-1.64187962e+02
4.60449219e+01	-1.67547699e+02
4.60693359e+01	-1.66006425e+02
4.60937500e+01	-1.60022912e+02
4.61181641e+01	-1.57827382e+02
4.61425781e+01	-1.59305939e+02
4.61669922e+01	-1.60458729e+02
4.61914062e+01	-1.57964920e+02
4.62158203e+01	-1.59333623e+02
4.62402344e+01	-1.60865125e+02
4.62646484e+01	-1.63240809e+02
4.62890625e+01	-1.58251421e+02
4.63134766e+01	-1.58178380e+02
4.63378906e+01	-1.59392413e+02
4.63623047e+01	-1.59602971e+02
4.63867188e+01	-1.57744030e+02
4.64111328e+01	-1.56249636e+02
4.64355469e+01	-1.59354915e+02
4.64599609e+01	-1.63621444e+02
4.64843750e+01	-1.66194559e+02
4.65087891e+01	-1.61601447e+02
4.65332031e+01	-1.59654551e+02
4.65576172e+01	-1.60764023e+02
4.65820312e+01	-1.61992240e+02
4.66064453e+01	-1.58282417e+02
4.66308594e+01	-1.55912336e+02
4.66552734e+01	-1.61067259e+02
4.66796875e+01	-1.60984421e+02
4.67041016e+01	-1.63627060e+02
4.67285156e+01	-1.65898701e+02
4.67529297e+01	-1.59682342e+02
4.67773438e+01	-1.59061261e+02
4.68017578e+01	-1.62044204e+02
4.68261719e+01	-1.61557869e+02
4.68505859e+01	-1.63022249e+02
4.68750000e+01	-1.63892064e+02
4.68994141e+01	-1.61815594e+02
4.69238281e+01	-1.59789871e+02
4.69482422e+01	-1.60453526e+02
4.69726562e+01	-1.60613424e+02
4.69970703e+01	-1.59466437e+02
4.70214844e+01	-1.63091554e+02
4.70458984e+01	-1.60814857e+02
4.70703125e+01	-1.60735398e+02
4.70947266e+01	-1.60594967e+02
4.71191406e+01	-1.61114068e+02
4.71435547e+01	-1.61608035e+02
4.71679688e+01	-1.59645609e+02
4.71923828e+01	-1.63115526e+02
4.72167969e+01	-1.59503572e+02
4.72412109e+01	-1.59039854e+02
4.72656250e+01	-1.59922703e+02
4.72900391e+01	-1.61691982e+02
4.73144531e+01	-1.61439466e+02
4.73388672e+01	-1.61750884e+02
4.73632812e+01	-1.61020488e+02
4.73876953e+01	-1.61444257e+02
4.74121094e+01	-1.62241205e+02
4.74365234e+01	-1.62293265e+02
4.74609375e+01	-1.60596274e+02
4.74853516e+01	-1.58859469e+02
4.75097656e+01	-1.58948574e+02
4.75341797e+01	-1.65385040e+02
4.75585938e+01	-1.62290040e+02
4.75830078e+01	-1.60110073e+02
4.76074219e+01	-1.60383633e+02
4.76318359e+01	-1.61955086e+02
4.76562500e+01	-1.62033082e+02
4.76806641e+01	-1.59839664e+02
4.77050781e+01	-1.58963291e+02
4.77294922e+01	-1.59830012e+02
4.77539062e+01	-1.63720854e+02
4.77783203e+01	-1.62558001e+02
4.78027344e+01	-1.63874982e+02
4.78271484e+01	-1.62319045e+02
4.78515625e+01	-1.60497676e+02
4.78759766e+01	-1.63624456e+02
4.79003906e+01	-1.58106993e+02
4.79248047e+01	-1.58689068e+02
4.79492188e+01	-1.58829924e+02
4.79736328e+01	-1.60183995e+02
4.79980469e+01	-1.63691014e+02
4.80224609e+01	-1.66580052e+02
4.80468750e+01	-1.62844708e+02
4.80712891e+01	-1.57352414e+02
4.80957031e+01	-1.60429826e+02
4.81201172e+01	-1.63558112e+02
4.81445312e+01	-1.59151099e+02
4.81689453e+01	-1.55601017e+02
4.81933594e+01	-1.57201800e+02
4.82177734e+01	-1.61888612e+02
4.82421875e+01	-1.63045648e+02
4.82666016e+01	-1.67827200e+02
4.82910156e+01	-1.61924651e+02
4.83154297e+01	-1.62332001e+02