# f [Hz] vs PSD(f) [dB_Hz]
# Lower frequency: 2.50000000e+01
# Upper frequency: 5.00000000e+01
# Window model  : Hanning
# Window number : 3
# Window samples: 4096
# Window overlap %: 5.00000000e+01
# dBRef         : 2.00000000e-05
# Area average  : true
# Area sum      : 8.99999982e-02
# Number of faces: 400
# f             	PSD(f)          
2.50000000e+01	-1.44922851e+02
2.50244141e+01	-1.42188414e+02
2.50488281e+01	-1.41638192e+02
2.50732422e+01	-1.40989854e+02
2.50976562e+01	-1.41287969e+02
2.51220703e+01	-1.42539795e+02
2.51464844e+01	-1.43661097e+02
2.51708984e+01	-1.42799912e+02
2.51953125e+01	-1.44176107e+02
2.52197266e+01	-1.45323514e+02
2.52441406e+01	-1.47970836e+02
2.52685547e+01	-1.41591035e+02
2.52929688e+01	-1.39549402e+02
2.53173828e+01	-1.43854563e+02
2.53417969e+01	-1.45077228e+02
2.53662109e+01	-1.43154937e+02
2.53906250e+01	-1.41952128e+02
2.54150391e+01	-1.44675019e+02
2.54394531e+01	-1.45248406e+02
2.54638672e+01	-1.48254544e+02
2.54882812e+01	-1.41726184e+02
2.55126953e+01	-1.43576751e+02
2.55371094e+01	-1.45410832e+02
2.55615234e+01	-1.45561348e+02
2.55859375e+01	-1.45313432e+02
2.56103516e+01	-1.44792023e+02
2.56347656e+01	-1.46514670e+02
2.56591797e+01	-1.48512777e+02
2.56835938e+01	-1.45098936e+02
2.57080078e+01	-1.37744084e+02
2.57324219e+01	-1.34901627e+02
2.57568359e+01	-1.39636699e+02
2.57812500e+01	-1.41926700e+02
2.58056641e+01	-1.43540465e+02
2.58300781e+01	-1.41637186e+02
2.58544922e+01	-1.43528904e+02
2.58789062e+01	-1.45609081e+02
2.59033203e+01	-1.45486500e+02
2.59277344e+01	-1.41568875e+02
2.59521484e+01	-1.38601454e+02
2.59765625e+01	-1.40142452e+02
2.60009766e+01	-1.43841675e+02
2.60253906e+01	-1.47135607e+02
2.60498047e+01	-1.43460001e+02
2.60742188e+01	-1.43603518e+02
2.60986328e+01	-1.47172932e+02
2.61230469e+01	-1.44563443e+02
2.61474609e+01	-1.42891865e+02
2.61718750e+01	-1.39704147e+02
2.61962891e+01	-1.43417135e+02
2.62207031e+01	-1.46941835e+02
2.62451172e+01	-1.45640086e+02
2.62695312e+01	-1.43077534e+02
2.62939453e+01	-1.44201902e+02
2.63183594e+01	-1.46632232e+02
2.63427734e+01	-1.41388279e+02
2.63671875e+01	-1.41979826e+02
2.63916016e+01	-1.46039989e+02
2.64160156e+01	-1.45831063e+02
2.64404297e+01	-1.44962394e+02
2.64648438e+01	-1.47523457e+02
2.64892578e+01	-1.44342630e+02
2.65136719e+01	-1.43739795e+02
2.65380859e+01	-1.45654799e+02
2.65625000e+01	-1.42210644e+02
2.65869141e+01	-1.42993321e+02
2.66113281e+01	-1.45847194e+02
2.66357422e+01	-1.49183711e+02
2.66601562e+01	-1.48970404e+02
2.66845703e+01	-1.45647221e+02
2.67089844e+01	-1.40747319e+02
2.67333984e+01	-1.43118076e+02
2.67578125e+01	-1.50761652e+02
2.67822266e+01	-1.49637979e+02
2.68066406e+01	-1.44392032e+02
2.68310547e+01	-1.43220105e+02
2.68554688e+01	-1.43555129e+02
2.68798828e+01	-1.46076996e+02
2.69042969e+01	-1.42831447e+02
2.69287109e+01	-1.41581031e+02
2.69531250e+01	-1.46634942e+02
2.69775391e+01	-1.47408696e+02
2.70019531e+01	-1.45252399e+02
2.70263672e+01	-1.45042262e+02
2.70507812e+01	-1.39802741e+02
2.70751953e+01	-1.41033788e+02
2.70996094e+01	-1.43252355e+02
2.71240234e+01	-1.43379798e+02
2.71484375e+01	-1.39806035e+02
2.71728516e+01	-1.41738694e+02
2.71972656e+01	-1.44201277e+02
2.72216797e+01	-1.43669522e+02
2.72460938e+01	-1.41280201e+02
2.72705078e+01	-1.39091933e+02
2.72949219e+01	-1.41212445e+02
2.73193359e+01	-1.43689496e+02
2.73437500e+01	-1.44883276e+02
2.73681641e+01	-1.47385937e+02
2.73925781e+01	-1.46423023e+02
2.74169922e+01	-1.43516545e+02
2.74414062e+01	-1.43948911e+02
2.74658203e+01	-1.47712153e+02
2.74902344e+01	-1.45948978e+02
2.75146484e+01	-1.45606030e+02
2.75390625e+01	-1.44307604e+02
2.75634766e+01	-1.45178469e+02
2.75878906e+01	-1.42772383e+02
2.76123047e+01	-1.44148397e+02
2.76367188e+01	-1.48332126e+02
2.76611328e+01	-1.45782386e+02
2.76855469e+01	-1.41108256e+02
2.77099609e+01	-1.39798461e+02
2.77343750e+01	-1.39192211e+02
2.77587891e+01	-1.45496290e+02
2.77832031e+01	-1.46825095e+02
2.78076172e+01	-1.42676266e+02
2.78320312e+01	-1.42781408e+02
2.78564453e+01	-1.48852281e+02
2.78808594e+01	-1.44871336e+02
2.79052734e+01	-1.42154806e+02
2.79296875e+01	-1.40001193e+02
2.79541016e+01	-1.42334063e+02
2.79785156e+01	-1.45631722e+02
2.80029297e+01	-1.44970481e+02
2.80273438e+01	-1.45456758e+02
2.80517578e+01	-1.45614189e+02
2.80761719e+01	-1.46237526e+02
2.81005859e+01	-1.44740200e+02
2.81250000e+01	-1.44618494e+02
2.81494141e+01	-1.42344895e+02
2.81738281e+01	-1.44613295e+02
2.81982422e+01	-1.49907863e+02
2.82226562e+01	-1.50379935e+02
2.82470703e+01	-1.47738453e+02
2.82714844e+01	-1.48944644e+02
2.82958984e+01	-1.49149536e+02
2.83203125e+01	-1.49255430e+02
2.83447266e+01	-1.43397557e+02
2.83691406e+01	-1.37139258e+02
2.83935547e+01	-1.38773641e+02
2.84179688e+01	-1.44966328e+02
2.84423828e+01	-1.46800533e+02
2.84667969e+01	-1.44037458e+02
2.84912109e+01	-1.42269391e+02
2.85156250e+01	-1.45518981e+02
2.85400391e+01	-1.46733217e+02
2.85644531e+01	-1.43679057e+02
2.85888672e+01	-1.42635069e+02
2.86132812e+01	-1.45417940e+02
2.86376953e+01	-1.45879099e+02
2.86621094e+01	-1.48023864e+02
2.86865234e+01	-1.43191803e+02
2.87109375e+01	-1.42193641e+02
2.87353516e+01	-1.47754103e+02
2.87597656e+01	-1.46908054e+02
2.87841797e+01	-1.46917089e+02
2.88085938e+01	-1.43175057e+02
2.88330078e+01	-1.43407555e+02
2.88574219e+01	-1.44863062e+02
2.88818359e+01	-1.45506378e+02
2.89062500e+01	-1.49123496e+02
2.89306641e+01	-1.48857255e+02
2.89550781e+01	-1.45534143e+02
2.89794922e+01	-1.41234284e+02
2.90039062e+01	-1.41069659e+02
2.90283203e+01	-1.40603711e+02
2.90527344e+01	-1.43584656e+02
2.90771484e+01	-1.48186060e+02
2.91015625e+01	-1.50016385e+02
2.91259766e+01	-1.48719555e+02
2.91503906e+01	-1.49606629e+02
2.91748047e+01	-1.48845318e+02
2.91992188e+01	-1.47391920e+02
2.92236328e+01	-1.47379856e+02
2.92480469e+01	-1.42780586e+02
2.92724609e+01	-1.40201883e+02
2.92968750e+01	-1.43673843e+02
2.93212891e+01	-1.47890495e+02
2.93457031e+01	-1.47501677e+02
2.93701172e+01	-1.47067691e+02
2.93945312e+01	-1.45462284e+02
2.94189453e+01	-1.46441692e+02
2.94433594e+01	-1.46186068e+02
2.94677734e+01	-1.44652491e+02
2.94921875e+01	-1.45419406e+02
2.95166016e+01	-1.47868023e+02
2.95410156e+01	-1.45403446e+02
2.95654297e+01	-1.46271732e+02
2.95898438e+01	-1.46230480e+02
2.96142578e+01	-1.47354106e+02
2.96386719e+01	-1.47788413e+02
2.96630859e+01	-1.44573516e+02
2.96875000e+01	-1.41688767e+02
2.97119141e+01	-1.45613542e+02
2.97363281e+01	-1.44538020e+02
2.97607422e+01	-1.45574703e+02
2.97851562e+01	-1.45448490e+02
2.98095703e+01	-1.46876011e+02
2.98339844e+01	-1.45485707e+02
2.98583984e+01	-1.45689624e+02
2.98828125e+01	-1.44532436e+02
2.99072266e+01	-1.41818737e+02
2.99316406e+01	-1.42259028e+02
2.99560547e+01	-1.45346770e+02
2.99804688e+01	-1.48659502e+02
3.00048828e+01	-1.43135903e+02
3.00292969e+01	-1.45637694e+02
3.00537109e+01	-1.46730067e+02
3.00781250e+01	-1.45020484e+02
3.01025391e+01	-1.43455590e+02
3.01269531e+01	-1.40253823e+02
3.01513672e+01	-1.41676564e+02
3.01757812e+01	-1.44034066e+02
3.02001953e+01	-1.50173124e+02
3.02246094e+01	-1.48937353e+02
3.02490234e+01	-1.47262149e+02
3.02734375e+01	-1.45895352e+02
3.02978516e+01	-1.48915145e+02
3.03222656e+01	-1.46910358e+02
3.03466797e+01	-1.42264379e+02
3.03710938e+01	-1.40796000e+02
3.03955078e+01	-1.45739119e+02
3.04199219e+01	-1.51195451e+02
3.04443359e+01	-1.47547247e+02
3.04687500e+01	-1.45426618e+02
3.04931641e+01	-1.48316025e+02
3.05175781e+01	-1.46028063e+02
3.05419922e+01	-1.43426146e+02
3.05664062e+01	-1.38136019e+02
3.05908203e+01	-1.37526957e+02
3.06152344e+01	-1.43107013e+02
3.06396484e+01	-1.45884637e+02
3.06640625e+01	-1.45184937e+02
3.06884766e+01	-1.44086895e+02
3.07128906e+01	-1.46657035e+02
3.07373047e+01	-1.45482860e+02
3.07617188e+01	-1.40987525e+02
3.07861328e+01	-1.36493008e+02
3.08105469e+01	-1.38166701e+02
3.08349609e+01	-1.43582374e+02
3.08593750e+01	-1.43462972e+02
3.08837891e+01	-1.45398262e+02
3.09082031e+01	-1.43929068e+02
3.09326172e+01	-1.43526570e+02
3.09570312e+01	-1.44618534e+02
3.09814453e+01	-1.45850318e+02
3.10058594e+01	-1.43425510e+02
3.10302734e+01	-1.43919668e+02
3.10546875e+01	-1.44220458e+02
3.10791016e+01	-1.45861562e+02
3.11035156e+01	-1.47003689e+02
3.11279297e+01	-1.45509694e+02
3.11523438e+01	-1.47459799e+02
3.11767578e+01	-1.50733139e+02
3.12011719e+01	-1.47814002e+02
3.12255859e+01	-1.44810263e+02
3.12500000e+01	-1.43912757e+02
3.12744141e+01	-1.41560104e+02
3.12988281e+01	-1.41137048e+02
3.13232422e+01	-1.44581964e+02
3.13476562e+01	-1.44488938e+02
3.13720703e+01	-1.44058994e+02
3.13964844e+01	-1.43277282e+02
3.14208984e+01	-1.41765279e+02
3.14453125e+01	-1.40161919e+02
3.14697266e+01	-1.40727723e+02
3.14941406e+01	-1.41711205e+02
3.15185547e+01	-1.41110855e+02
3.15429688e+01	-1.45038139e+02
3.15673828e+01	-1.46901015e+02
3.15917969e+01	-1.48390226e+02
3.16162109e+01	-1.48343018e+02
3.16406250e+01	-1.43076841e+02
3.16650391e+01	-1.38589273e+02
3.16894531e+01	-1.40831890e+02
3.17138672e+01	-1.48535288e+02
3.17382812e+01	-1.48978052e+02
3.17626953e+01	-1.47619000e+02
3.17871094e+01	-1.45980535e+02
3.18115234e+01	-1.43925808e+02
3.18359375e+01	-1.43025585e+02
3.18603516e+01	-1.39696392e+02
3.18847656e+01	-1.36037341e+02
3.19091797e+01	-1.39197162e+02
3.19335938e+01	-1.44563267e+02
3.19580078e+01	-1.44916763e+02
3.19824219e+01	-1.45770526e+02
3.20068359e+01	-1.45629354e+02
3.20312500e+01	-1.43893660e+02
3.20556641e+01	-1.40785661e+02
3.20800781e+01	-1.38050540e+02
3.21044922e+01	-1.38326654e+02
3.21289062e+01	-1.39561430e+02
3.21533203e+01	-1.40111034e+02
3.21777344e+01	-1.43082474e+02
3.22021484e+01	-1.41190458e+02
3.22265625e+01	-1.39552278e+02
3.22509766e+01	-1.42986941e+02
3.22753906e+01	-1.47730074e+02
3.22998047e+01	-1.43178637e+02
3.23242188e+01	-1.40515114e+02
3.23486328e+01	-1.44959800e+02
3.23730469e+01	-1.44183484e+02
3.23974609e+01	-1.39719257e+02
3.24218750e+01	-1.38577345e+02
3.24462891e+01	-1.37900183e+02
3.24707031e+01	-1.39202870e+02
3.24951172e+01	-1.39832537e+02
3.25195312e+01	-1.40593235e+02
3.25439453e+01	-1.38467633e+02
3.25683594e+01	-1.39971057e+02
3.25927734e+01	-1.42968700e+02
3.26171875e+01	-1.42874347e+02
3.26416016e+01	-1.40594156e+02
3.26660156e+01	-1.39246520e+02
3.26904297e+01	-1.39906711e+02
3.27148438e+01	-1.41538963e+02
3.27392578e+01	-1.43484073e+02
3.27636719e+01	-1.38743753e+02
3.27880859e+01	-1.40109808e+02
3.28125000e+01	-1.45617397e+02
3.28369141e+01	-1.42918698e+02
3.28613281e+01	-1.40313421e+02
3.28857422e+01	-1.39401913e+02
3.29101562e+01	-1.43429561e+02
3.29345703e+01	-1.44213662e+02
3.29589844e+01	-1.38983382e+02
3.29833984e+01	-1.36566340e+02
3.30078125e+01	-1.37941740e+02
3.30322266e+01	-1.44227266e+02
3.30566406e+01	-1.46908081e+02
3.30810547e+01	-1.46301444e+02
3.31054688e+01	-1.48050702e+02
3.31298828e+01	-1.44695896e+02
3.31542969e+01	-1.44921811e+02
3.31787109e+01	-1.45171903e+02
3.32031250e+01	-1.43152255e+02
3.32275391e+01	-1.44080559e+02
3.32519531e+01	-1.42799413e+02
3.32763672e+01	-1.43620019e+02
3.33007812e+01	-1.45251334e+02
3.33251953e+01	-1.43660811e+02
3.33496094e+01	-1.43096023e+02
3.33740234e+01	-1.46152685e+02
3.33984375e+01	-1.44743658e+02
3.34228516e+01	-1.42953705e+02
3.34472656e+01	-1.44455913e+02
3.34716797e+01	-1.43335955e+02
3.34960938e+01	-1.43581891e+02
3.35205078e+01	-1.42078184e+02
3.35449219e+01	-1.41435825e+02
3.35693359e+01	-1.44615789e+02
3.35937500e+01	-1.43825371e+02
3.36181641e+01	-1.42149414e+02
3.36425781e+01	-1.41343968e+02
3.36669922e+01	-1.40965379e+02
3.36914062e+01	-1.43384195e+02
3.37158203e+01	-1.39628457e+02
3.37402344e+01	-1.37312106e+02
3.37646484e+01	-1.38225950e+02
3.37890625e+01	-1.43175302e+02
3.38134766e+01	-1.42055262e+02
3.38378906e+01	-1.41853201e+02
3.38623047e+01	-1.39553160e+02
3.38867188e+01	-1.40507550e+02
3.39111328e+01	-1.41479396e+02
3.39355469e+01	-1.41832494e+02
3.39599609e+01	-1.39131799e+02
3.39843750e+01	-1.38015920e+02
3.40087891e+01	-1.43136800e+02
3.40332031e+01	-1.46650351e+02
3.40576172e+01	-1.46882648e+02
3.40820312e+01	-1.46387227e+02
3.41064453e+01	-1.48914473e+02
3.41308594e+01	-1.42899602e+02
3.41552734e+01	-1.43736102e+02
3.41796875e+01	-1.46852358e+02
3.42041016e+01	-1.46493074e+02
3.42285156e+01	-1.45844463e+02
3.42529297e+01	-1.42045400e+02
3.42773438e+01	-1.41340414e+02
3.43017578e+01	-1.41987470e+02
3.43261719e+01	-1.40599222e+02
3.43505859e+01	-1.42294362e+02
3.43750000e+01	-1.45303785e+02
3.43994141e+01	-1.43433488e+02
3.44238281e+01	-1.44894045e+02
3.44482422e+01	-1.47422807e+02
3.44726562e+01	-1.46534561e+02
3.44970703e+01	-1.45577492e+02
3.45214844e+01	-1.43640321e+02
3.45458984e+01	-1.43767681e+02
3.45703125e+01	-1.43747422e+02
3.45947266e+01	-1.44101499e+02
3.46191406e+01	-1.43698327e+02
3.46435547e+01	-1.44341495e+02
3.46679688e+01	-1.48158307e+02
3.46923828e+01	-1.52510840e+02
3.47167969e+01	-1.46655372e+02
3.47412109e+01	-1.47811209e+02
3.47656250e+01	-1.43935573e+02
3.47900391e+01	-1.46189896e+02
3.48144531e+01	-1.45323097e+02
3.48388672e+01	-1.50295011e+02
3.48632812e+01	-1.45344129e+02
3.48876953e+01	-1.45826735e+02
3.49121094e+01	-1.45090775e+02
3.49365234e+01	-1.40945103e+02
3.49609375e+01	-1.38019738e+02
3.49853516e+01	-1.40176500e+02
3.50097656e+01	-1.46235481e+02
3.50341797e+01	-1.45633155e+02
3.50585938e+01	-1.45026079e+02
3.50830078e+01	-1.45030138e+02
3.51074219e+01	-1.45968413e+02
3.51318359e+01	-1.45886502e+02
3.51562500e+01	-1.44112861e+02
3.51806641e+01	-1.41109816e+02
3.52050781e+01	-1.42609483e+02
3.52294922e+01	-1.44963959e+02
3.52539062e+01	-1.44108588e+02
3.52783203e+01	-1.45320328e+02
3.53027344e+01	-1.44498306e+02
3.53271484e+01	-1.46293148e+02
3.53515625e+01	-1.45286707e+02
3.53759766e+01	-1.41958514e+02
3.54003906e+01	-1.43114961e+02
3.54248047e+01	-1.44359197e+02
3.54492188e+01	-1.47296067e+02
3.54736328e+01	-1.46651508e+02
3.54980469e+01	-1.43262527e+02
3.55224609e+01	-1.43789970e+02
3.55468750e+01	-1.44903590e+02
3.55712891e+01	-1.47992869e+02
3.55957031e+01	-1.46909450e+02
3.56201172e+01	-1.41568121e+02
3.56445312e+01	-1.40850174e+02
3.56689453e+01	-1.45443304e+02
3.56933594e+01	-1.46358471e+02
3.57177734e+01	-1.45706733e+02
3.57421875e+01	-1.47223362e+02
3.57666016e+01	-1.45915227e+02
3.57910156e+01	-1.43159311e+02
3.58154297e+01	-1.44145704e+02
3.58398438e+01	-1.40417542e+02
3.58642578e+01	-1.38409043e+02
3.58886719e+01	-1.43991410e+02
3.59130859e+01	-1.47010532e+02
3.59375000e+01	-1.43955496e+02
3.59619141e+01	-1.43990194e+02
3.59863281e+01	-1.46478740e+02
3.60107422e+01	-1.46117107e+02
3.60351562e+01	-1.45805089e+02
3.60595703e+01	-1.42481342e+02
3.60839844e+01	-1.42595968e+02
3.61083984e+01	-1.48419868e+02
3.61328125e+01	-1.49247252e+02
3.61572266e+01	-1.45817376e+02
3.61816406e+01	-1.45819915e+02
3.62060547e+01	-1.43385162e+02
3.62304688e+01	-1.42305650e+02
3.62548828e+01	-1.48778875e+02
3.62792969e+01	-1.48480847e+02
3.63037109e+01	-1.45996576e+02
3.63281250e+01	-1.45869162e+02
3.63525391e+01	-1.44466181e+02
3.63769531e+01	-1.43309773e+02
3.64013672e+01	-1.42775926e+02
3.64257812e+01	-1.44300462e+02
3.64501953e+01	-1.44624651e+02
3.64746094e+01	-1.48186637e+02
3.64990234e+01	-1.42427016e+02
3.65234375e+01	-1.43359402e+02
3.65478516e+01	-1.49056514e+02
3.65722656e+01	-1.47874536e+02
3.65966797e+01	-1.47767199e+02
3.66210938e+01	-1.49640228e+02
3.66455078e+01	-1.46406076e+02
3.66699219e+01	-1.46226349e+02
3.66943359e+01	-1.44898500e+02
3.67187500e+01	-1.41893317e+02
3.67431641e+01	-1.43106077e+02
3.67675781e+01	-1.44958134e+02
3.67919922e+01	-1.45194505e+02
3.68164062e+01	-1.45427170e+02
3.68408203e+01	-1.45257325e+02
3.68652344e+01	-1.45370120e+02
3.68896484e+01	-1.43956260e+02
3.69140625e+01	-1.44590455e+02
3.69384766e+01	-1.41917442e+02
3.69628906e+01	-1.42548440e+02
3.69873047e+01	-1.45339493e+02
3.70117188e+01	-1.44273395e+02
3.70361328e+01	-1.45084036e+02
3.70605469e+01	-1.46388919e+02
3.70849609e+01	-1.48471139e+02
3.71093750e+01	-1.46214872e+02
3.71337891e+01	-1.48157695e+02
3.71582031e+01	-1.43679400e+02
3.71826172e+01	-1.41546721e+02
3.72070312e+01	-1.46544265e+02
3.72314453e+01	-1.46913223e+02
3.72558594e+01	-1.48338254e+02
3.72802734e+01	-1.46786904e+02
3.73046875e+01	-1.45967231e+02
3.73291016e+01	-1.46361090e+02
3.73535156e+01	-1.46508971e+02
3.73779297e+01	-1.45437374e+02
3.74023438e+01	-1.51996448e+02
3.74267578e+01	-1.47160354e+02
3.74511719e+01	-1.47433045e+02
3.74755859e+01	-1.47549645e+02
3.75000000e+01	-1.44658092e+02
3.75244141e+01	-1.45928018e+02
3.75488281e+01	-1.46047507e+02
3.75732422e+01	-1.46201095e+02
3.75976562e+01	-1.43680014e+02
3.76220703e+01	-1.42269553e+02
3.76464844e+01	-1.46460412e+02
3.76708984e+01	-1.48736809e+02
3.76953125e+01	-1.49097184e+02
3.77197266e+01	-1.45756170e+02
3.77441406e+01	-1.44315005e+02
3.77685547e+01	-1.43552150e+02
3.77929688e+01	-1.45659070e+02
3.78173828e+01	-1.46041468e+02
3.78417969e+01	-1.45940084e+02
3.78662109e+01	-1.46672843e+02
3.78906250e+01	-1.47914736e+02
3.79150391e+01	-1.48389266e+02
3.79394531e+01	-1.43061846e+02
3.79638672e+01	-1.44739934e+02
3.79882812e+01	-1.46477530e+02
3.80126953e+01	-1.45989438e+02
3.80371094e+01	-1.46091480e+02
3.80615234e+01	-1.44031971e+02
3.80859375e+01	-1.41917650e+02
3.81103516e+01	-1.46084147e+02
3.81347656e+01	-1.46067294e+02
3.81591797e+01	-1.42125966e+02
3.81835938e+01	-1.42690400e+02
3.82080078e+01	-1.46123356e+02
3.82324219e+01	-1.48119807e+02
3.82568359e+01	-1.43357777e+02
3.82812500e+01	-1.40746144e+02
3.83056641e+01	-1.41257976e+02
3.83300781e+01	-1.48499229e+02
3.83544922e+01	-1.48506034e+02
3.83789062e+01	-1.45834094e+02
3.84033203e+01	-1.45979673e+02
3.84277344e+01	-1.48986175e+02
3.84521484e+01	-1.46163358e+02
3.84765625e+01	-1.41199241e+02
3.85009766e+01	-1.42224975e+02
3.85253906e+01	-1.45121720e+02
3.85498047e+01	-1.46796895e+02
3.85742188e+01	-1.47899941e+02
3.85986328e+01	-1.47295813e+02
3.86230469e+01	-1.48801793e+02
3.86474609e+01	-1.47362319e+02
3.86718750e+01	-1.46786998e+02
3.86962891e+01	-1.44249344e+02
3.87207031e+01	-1.43684437e+02
3.87451172e+01	-1.44838608e+02
3.87695312e+01	-1.45098512e+02
3.87939453e+01	-1.48191738e+02
3.88183594e+01	-1.45173840e+02
3.88427734e+01	-1.43788221e+02
3.88671875e+01	-1.46357751e+02
3.88916016e+01	-1.45714167e+02
3.89160156e+01	-1.43988588e+02
3.89404297e+01	-1.44166597e+02
3.89648438e+01	-1.43898629e+02
3.89892578e+01	-1.45273958e+02
3.90136719e+01	-1.46254208e+02
3.90380859e+01	-1.45873196e+02
3.90625000e+01	-1.44753941e+02
3.90869141e+01	-1.44090688e+02
3.91113281e+01	-1.44560726e+02
3.91357422e+01	-1.42676898e+02
3.91601562e+01	-1.43792618e+02
3.91845703e+01	-1.49054160e+02
3.92089844e+01	-1.47846799e+02
3.92333984e+01	-1.48761324e+02
3.92578125e+01	-1.46690590e+02
3.92822266e+01	-1.44033225e+02
3.93066406e+01	-1.46529533e+02
3.93310547e+01	-1.48506209e+02
3.93554688e+01	-1.47388325e+02
3.93798828e+01	-1.47257986e+02
3.94042969e+01	-1.47304497e+02
3.94287109e+01	-1.46149414e+02
3.94531250e+01	-1.48933290e+02
3.94775391e+01	-1.47768290e+02
3.95019531e+01	-1.43614526e+02
3.95263672e+01	-1.42615658e+02
3.95507812e+01	-1.45039188e+02
3.95751953e+01	-1.42536002e+02
3.95996094e+01	-1.39977090e+02
3.96240234e+01	-1.43679991e+02
3.96484375e+01	-1.45995467e+02
3.96728516e+01	-1.46748634e+02
3.96972656e+01	-1.44937698e+02
3.97216797e+01	-1.46928403e+02
3.97460938e+01	-1.46607869e+02
3.97705078e+01	-1.45231226e+02
3.97949219e+01	-1.43492726e+02
3.98193359e+01	-1.41999538e+02
3.98437500e+01	-1.47438233e+02
3.98681641e+01	-1.51351690e+02
3.98925781e+01	-1.48179563e+02
3.99169922e+01	-1.46118756e+02
3.99414062e+01	-1.46797042e+02
3.99658203e+01	-1.48370134e+02
3.99902344e+01	-1.44277138e+02
4.00146484e+01	-1.43226359e+02
4.00390625e+01	-1.43817604e+02
4.00634766e+01	-1.47904938e+02
4.00878906e+01	-1.49359500e+02
4.01123047e+01	-1.50705500e+02
4.01367188e+01	-1.48392211e+02
4.01611328e+01	-1.44763231e+02
4.01855469e+01	-1.44949405e+02
4.02099609e+01	-1.42858560e+02
4.02343750e+01	-1.42454878e+02
4.02587891e+01	-1.44195796e+02
4.02832031e+01	-1.47860642e+02
4.03076172e+01	-1.46213683e+02
4.03320312e+01	-1.45733601e+02
4.03564453e+01	-1.45235183e+02
4.03808594e+01	-1.47825206e+02
4.04052734e+01	-1.47360920e+02
4.04296875e+01	-1.48294800e+02
4.04541016e+01	-1.42695344e+02
4.04785156e+01	-1.42683824e+02
4.05029297e+01	-1.44256651e+02
4.05273438e+01	-1.45866722e+02
4.05517578e+01	-1.46758118e+02
4.05761719e+01	-1.45238275e+02
4.06005859e+01	-1.44317024e+02
4.06250000e+01	-1.46515351e+02
4.06494141e+01	-1.48092602e+02
4.06738281e+01	-1.50498877e+02
4.06982422e+01	-1.48030294e+02
4.07226562e+01	-1.50839047e+02
4.07470703e+01	-1.51744833e+02
4.07714844e+01	-1.50602290e+02
4.07958984e+01	-1.46594534e+02
4.08203125e+01	-1.44393581e+02
4.08447266e+01	-1.42874239e+02
4.08691406e+01	-1.44089776e+02
4.08935547e+01	-1.44140832e+02
4.09179688e+01	-1.43013783e+02
4.09423828e+01	-1.44940973e+02
4.09667969e+01	-1.52469999e+02
4.09912109e+01	-1.47185411e+02
4.10156250e+01	-1.43814114e+02
4.10400391e+01	-1.46883559e+02
4.10644531e+01	-1.46761873e+02
4.10888672e+01	-1.45162074e+02
4.11132812e+01	-1.47366700e+02
4.11376953e+01	-1.43077128e+02
4.11621094e+01	-1.44112331e+02
4.11865234e+01	-1.48109562e+02
4.12109375e+01	-1.46480034e+02
4.12353516e+01	-1.46549804e+02
4.12597656e+01	-1.42835313e+02
4.12841797e+01	-1.42334677e+02
4.13085938e+01	-1.45915178e+02
4.13330078e+01	-1.44383378e+02
4.13574219e+01	-1.41501091e+02
4.13818359e+01	-1.43152827e+02
4.14062500e+01	-1.48424330e+02
4.14306641e+01	-1.49725310e+02
4.14550781e+01	-1.46641453e+02
4.14794922e+01	-1.45873988e+02
4.15039062e+01	-1.47305900e+02
4.15283203e+01	-1.47672086e+02
4.15527344e+01	-1.46060987e+02
4.15771484e+01	-1.46769265e+02
4.16015625e+01	-1.47604827e+02
4.16259766e+01	-1.47178930e+02
4.16503906e+01	-1.46525111e+02
4.16748047e+01	-1.47243167e+02
4.16992188e+01	-1.46399121e+02
4.17236328e+01	-1.44979135e+02
4.17480469e+01	-1.47349813e+02
4.17724609e+01	-1.48547578e+02
4.17968750e+01	-1.46380500e+02
4.18212891e+01	-1.46235949e+02
4.18457031e+01	-1.46943758e+02
4.18701172e+01	-1.47684101e+02
4.18945312e+01	-1.45212897e+02
4.19189453e+01	-1.47574591e+02
4.19433594e+01	-1.49659605e+02
4.19677734e+01	-1.52172518e+02
4.19921875e+01	-1.48123991e+02
4.20166016e+01	-1.45841378e+02
4.20410156e+01	-1.46792394e+02
4.20654297e+01	-1.50507329e+02
4.20898438e+01	-1.45759334e+02
4.21142578e+01	-1.44202238e+02
4.21386719e+01	-1.44968588e+02
4.21630859e+01	-1.45023404e+02
4.21875000e+01	-1.45287883e+02
4.22119141e+01	-1.46150177e+02
4.22363281e+01	-1.44613436e+02
4.22607422e+01	-1.46019506e+02
4.22851562e+01	-1.49115319e+02
4.23095703e+01	-1.46818979e+02
4.23339844e+01	-1.45124881e+02
4.23583984e+01	-1.45219879e+02
4.23828125e+01	-1.48212956e+02
4.24072266e+01	-1.48166788e+02
4.24316406e+01	-1.42306521e+02
4.24560547e+01	-1.39561954e+02
4.24804688e+01	-1.42298437e+02
4.25048828e+01	-1.48820823e+02
4.25292969e+01	-1.46737890e+02
4.25537109e+01	-1.45326913e+02
4.25781250e+01	-1.46913830e+02
4.26025391e+01	-1.47932053e+02
4.26269531e+01	-1.44980530e+02
4.26513672e+01	-1.43899144e+02
4.26757812e+01	-1.45348693e+02
4.27001953e+01	-1.49360644e+02
4.27246094e+01	-1.47580474e+02
4.27490234e+01	-1.44348158e+02
4.27734375e+01	-1.43216178e+02
4.27978516e+01	-1.44982034e+02
4.28222656e+01	-1.46188569e+02
4.28466797e+01	-1.44368398e+02
4.28710938e+01	-1.41289852e+02
4.28955078e+01	-1.41148107e+02
4.29199219e+01	-1.50087933e+02
4.29443359e+01	-1.46061807e+02
4.29687500e+01	-1.49672373e+02
4.29931641e+01	-1.46500944e+02
4.30175781e+01	-1.44663474e+02
4.30419922e+01	-1.43997463e+02
4.30664062e+01	-1.45592969e+02
4.30908203e+01	-1.41963403e+02
4.31152344e+01	-1.39971252e+02
4.31396484e+01	-1.44080075e+02
4.31640625e+01	-1.45510606e+02
4.31884766e+01	-1.50302376e+02
4.32128906e+01	-1.48725315e+02
4.32373047e+01	-1.47139709e+02
4.32617188e+01	-1.49281665e+02
4.32861328e+01	-1.49193805e+02
4.33105469e+01	-1.50891678e+02
4.33349609e+01	-1.48570337e+02
4.33593750e+01	-1.48449254e+02
4.33837891e+01	-1.48192575e+02
4.34082031e+01	-1.49258442e+02
4.34326172e+01	-1.47246432e+02
4.34570312e+01	-1.45572162e+02
4.34814453e+01	-1.45665395e+02
4.35058594e+01	-1.47022619e+02
4.35302734e+01	-1.45173295e+02
4.35546875e+01	-1.43483757e+02
4.35791016e+01	-1.45924243e+02
4.36035156e+01	-1.48516065e+02
4.36279297e+01	-1.47760865e+02
4.36523438e+01	-1.45137967e+02
4.36767578e+01	-1.41874126e+02
4.37011719e+01	-1.44439848e+02
4.37255859e+01	-1.48406944e+02
4.37500000e+01	-1.44149210e+02
4.37744141e+01	-1.41347339e+02
4.37988281e+01	-1.46209039e+02
4.38232422e+01	-1.51505305e+02
4.38476562e+01	-1.49961603e+02
4.38720703e+01	-1.48506945e+02
4.38964844e+01	-1.48754330e+02
4.39208984e+01	-1.46741647e+02
4.39453125e+01	-1.48213166e+02
4.39697266e+01	-1.47019587e+02
4.39941406e+01	-1.45789069e+02
4.40185547e+01	-1.45296169e+02
4.40429688e+01	-1.47049789e+02
4.40673828e+01	-1.48154182e+02
4.40917969e+01	-1.47854849e+02
4.41162109e+01	-1.48713988e+02
4.41406250e+01	-1.50125853e+02
4.41650391e+01	-1.49310156e+02
4.41894531e+01	-1.48483134e+02
4.42138672e+01	-1.43546406e+02
4.42382812e+01	-1.44709245e+02
4.42626953e+01	-1.43560244e+02
4.42871094e+01	-1.42889643e+02
4.43115234e+01	-1.46401672e+02
4.43359375e+01	-1.45671721e+02
4.43603516e+01	-1.42046554e+02
4.43847656e+01	-1.41792998e+02
4.44091797e+01	-1.47149009e+02
4.44335938e+01	-1.47746764e+02
4.44580078e+01	-1.46158650e+02
4.44824219e+01	-1.43588556e+02
4.45068359e+01	-1.45737794e+02
4.45312500e+01	-1.45552504e+02
4.45556641e+01	-1.45300047e+02
4.45800781e+01	-1.44755567e+02
4.46044922e+01	-1.42903510e+02
4.46289062e+01	-1.40263777e+02
4.46533203e+01	-1.41646299e+02
4.46777344e+01	-1.44644010e+02
4.47021484e+01	-1.44237243e+02
4.47265625e+01	-1.43330649e+02
4.47509766e+01	-1.42853593e+02
4.47753906e+01	-1.42099743e+02
4.47998047e+01	-1.42811384e+02
4.48242188e+01	-1.42485333e+02
4.48486328e+01	-1.41288829e+02
4.48730469e+01	-1.40500842e+02
4.48974609e+01	-1.42890389e+02
4.49218750e+01	-1.44310192e+02
4.49462891e+01	-1.45510877e+02
4.49707031e+01	-1.41715677e+02
4.49951172e+01	-1.43577377e+02
4.50195312e+01	-1.44441617e+02
4.50439453e+01	-1.42631956e+02
4.50683594e+01	-1.41315008e+02
4.50927734e+01	-1.40153391e+02
4.51171875e+01	-1.41568195e+02
4.51416016e+01	-1.43560111e+02
4.51660156e+01	-1.44851332e+02
4.51904297e+01	-1.41869834e+02
4.52148438e+01	-1.42153684e+02
4.52392578e+01	-1.43957384e+02
4.52636719e+01	-1.47019320e+02
4.52880859e+01	-1.48962282e+02
4.53125000e+01	-1.46224530e+02
4.53369141e+01	-1.45017450e+02
4.53613281e+01	-1.47079786e+02
4.53857422e+01	-1.46105773e+02
4.54101562e+01	-1.43422068e+02
4.54345703e+01	-1.45738180e+02
4.54589844e+01	-1.47815065e+02
4.54833984e+01	-1.47153239e+02
4.55078125e+01	-1.46492994e+02
4.55322266e+01	-1.45398217e+02
4.55566406e+01	-1.45957737e+02
4.55810547e+01	-1.45149530e+02
4.56054688e+01	-1.48123249e+02
4.56298828e+01	-1.42888008e+02
4.56542969e+01	-1.41786770e+02
4.56787109e+01	-1.43639800e+02
4.57031250e+01	-1.43353247e+02
4.57275391e+01	-1.43997179e+02
4.57519531e+01	-1.44126637e+02
4.57763672e+01	-1.45220324e+02
4.58007812e+01	-1.46003056e+02
4.58251953e+01	-1.45357065e+02
4.58496094e+01	-1.42778243e+02
4.58740234e+01	-1.43937227e+02
4.58984375e+01	-1.45693014e+02
4.59228516e+01	-1.44776453e+02
4.59472656e+01	-1.44866963e+02
4.59716797e+01	-1.45220851e+02
4.59960938e+01	-1.48229606e+02
4.60205078e+01	-1.48064363e+02
4.60449219e+01	-1.51424100e+02
4.60693359e+01	-1.49882825e+02
4.60937500e+01	-1.43899312e+02
4.61181641e+01	-1.41703783e+02
4.61425781e+01	-1.43182340e+02
4.61669922e+01	-1.44335129e+02
4.61914062e+01	-1.41841320e+02
4.62158203e+01	-1.43210023e+02
4.62402344e+01	-1.44741525e+02
4.62646484e+01	-1.47117210e+02
4.62890625e+01	-1.42127822e+02
4.63134766e+01	-1.42054781e+02
4.63378906e+01	-1.43268814e+02
4.63623047e+01	-1.43479372e+02
4.63867188e+01	-1.41620431e+02
4.64111328e+01	-1.40126036e+02
4.64355469e+01	-1.43231315e+02
4.64599609e+01	-1.47497844e+02
4.64843750e+01	-1.50070960e+02
4.65087891e+01	-1.45477847e+02
4.65332031e+01	-1.43530952e+02
4.65576172e+01	-1.44640423e+02
4.65820312e+01	-1.45868640e+02
4.66064453e+01	-1.42158818e+02
4.66308594e+01	-1.39788737e+02
4.66552734e+01	-1.44943659e+02
4.66796875e+01	-1.44860821e+02
4.67041016e+01	-1.47503461e+02
4.67285156e+01	-1.49775101e+02
4.67529297e+01	-1.43558743e+02
4.67773438e+01	-1.42937662e+02
4.68017578e+01	-1.45920604e+02
4.68261719e+01	-1.45434270e+02
4.68505859e+01	-1.46898649e+02
4.68750000e+01	-1.47768465e+02
4.68994141e+01	-1.45691994e+02
4.69238281e+01	-1.43666271e+02
4.69482422e+01	-1.44329927e+02
4.69726562e+01	-1.44489825e+02
4.69970703e+01	-1.43342838e+02
4.70214844e+01	-1.46967955e+02
4.70458984e+01	-1.44691257e+02
4.70703125e+01	-1.44611799e+02
4.70947266e+01	-1.44471367e+02
4.71191406e+01	-1.44990469e+02
4.71435547e+01	-1.45484435e+02
4.71679688e+01	-1.43522009e+02
4.71923828e+01	-1.46991926e+02
4.72167969e+01	-1.43379972e+02
4.72412109e+01	-1.42916254e+02
4.72656250e+01	-1.43799104e+02
4.72900391e+01	-1.45568383e+02
4.73144531e+01	-1.45315866e+02
4.73388672e+01	-1.45627284e+02
4.73632812e+01	-1.44896888e+02
4.73876953e+01	-1.45320658e+02
4.74121094e+01	-1.46117606e+02
4.74365234e+01	-1.46169666e+02
4.74609375e+01	-1.44472675e+02
4.74853516e+01	-1.42735869e+02
4.75097656e+01	-1.42824975e+02
4.75341797e+01	-1.49261441e+02
4.75585938e+01	-1.46166440e+02
4.75830078e+01	-1.43986473e+02
4.76074219e+01	-1.44260033e+02
4.76318359e+01	-1.45831487e+02
4.76562500e+01	-1.45909483e+02
4.76806641e+01	-1.43716065e+02
4.77050781e+01	-1.42839692e+02
4.77294922e+01	-1.43706413e+02
4.77539062e+01	-1.47597254e+02
4.77783203e+01	-1.46434401e+02
4.78027344e+01	-1.47751382e+02
4.78271484e+01	-1.46195445e+02
4.78515625e+01	-1.44374077e+02
4.78759766e+01	-1.47500856e+02
4.79003906e+01	-1.41983394e+02
4.79248047e+01	-1.42565469e+02
4.79492188e+01	-1.42706324e+02
4.79736328e+01	-1.44060395e+02
4.79980469e+01	-1.47567415e+02
4.80224609e+01	-1.50456453e+02
4.80468750e+01	-1.46721108e+02
4.80712891e+01	-1.41228815e+02
4.80957031e+01	-1.44306226e+02
4.81201172e+01	-1.47434512e+02
4.81445312e+01	-1.43027500e+02
4.81689453e+01	-1.39477417e+02
4.81933594e+01	-1.41078200e+02
4.82177734e+01	-1.45765013e+02
4.82421875e+01	-1.46922048e+02
4.82666016e+01	-1.51703601e+02
4.82910156e+01	-1.45801052e+02
4.83154297e+01	-1.46208401e+02