scalar
part
         1
quad4
 3.39863e-07
 3.28532e-07
 3.13542e-07
 2.96591e-07
 2.78859e-07
 2.61130e-07
 2.43903e-07
 2.27479e-07
 2.12021e-07
 1.97600e-07
 1.84228e-07
 1.71878e-07
 1.60502e-07
 1.50041e-07
 1.40427e-07
 1.31595e-07
 1.23480e-07
 1.16018e-07
 1.09152e-07
 1.02829e-07
 4.21165e-07
 3.97885e-07
 3.72260e-07
 3.46117e-07
 3.20581e-07
 2.96298e-07
 2.73602e-07
 2.52628e-07
 2.33387e-07
 2.15820e-07
 1.99825e-07
 1.85284e-07
 1.72073e-07
 1.60068e-07
 1.49152e-07
 1.39216e-07
 1.30162e-07
 1.21899e-07
 1.14347e-07
 1.07433e-07
 5.21572e-07
 4.80713e-07
 4.40391e-07
 4.02166e-07
 3.66789e-07
 3.34525e-07
 3.05361e-07
 2.79141e-07
 2.55635e-07
 2.34586e-07
 2.15738e-07
 1.98848e-07
 1.83693e-07
 1.70072e-07
 1.57806e-07
 1.46737e-07
 1.36726e-07
 1.27653e-07
 1.19410e-07
 1.11906e-07
 6.43820e-07
 5.77989e-07
 5.18006e-07
 4.64390e-07
 4.16970e-07
 3.75263e-07
 3.38665e-07
 3.06560e-07
 2.78367e-07
 2.53561e-07
 2.31683e-07
 2.12333e-07
 1.95166e-07
 1.79891e-07
 1.66255e-07
 1.54045e-07
 1.43079e-07
 1.33201e-07
 1.24277e-07
 1.16194e-07
 7.89383e-07
 6.89511e-07
 6.04243e-07
 5.31741e-07
 4.70110e-07
 4.17614e-07
 3.72750e-07
 3.34252e-07
 3.01067e-07
 2.72329e-07
 2.47323e-07
 2.25465e-07
 2.06271e-07
 1.89343e-07
 1.74351e-07
 1.61020e-07
 1.49121e-07
 1.38462e-07
 1.28880e-07
 1.20239e-07
 9.57123e-07
 8.13147e-07
 6.96895e-07
 6.02272e-07
 5.24595e-07
 4.60285e-07
 4.06597e-07
 3.61419e-07
 3.23111e-07
 2.90397e-07
 2.62272e-07
 2.37939e-07
 2.16764e-07
 1.98235e-07
 1.81938e-07
 1.67535e-07
 1.54749e-07
 1.43350e-07
 1.33148e-07
 1.23984e-07
 1.14163e-06
 9.44056e-07
 7.92081e-07
 6.73003e-07
 5.78184e-07
 5.01600e-07
 4.38951e-07
 3.87116e-07
 3.43784e-07
 3.07222e-07
 2.76111e-07
 2.49432e-07
 2.26393e-07
 2.06368e-07
 1.88858e-07
 1.73465e-07
 1.59862e-07
 1.47785e-07
 1.37016e-07
 1.27374e-07
 1.33169e-06
 1.07415e-06
 8.84114e-07
 7.39957e-07
 6.28082e-07
 5.39575e-07
 4.68390e-07
 4.10312e-07
 3.62328e-07
 3.22240e-07
 2.88415e-07
 2.59619e-07
 2.34908e-07
 2.13547e-07
 1.94960e-07
 1.78687e-07
 1.64363e-07
 1.51687e-07
 1.40419e-07
 1.30357e-07
 1.50954e-06
 1.19221e-06
 9.65803e-07
 7.98439e-07
 6.71161e-07
 5.72084e-07
 4.93439e-07
 4.29964e-07
 3.77992e-07
 3.34901e-07
 2.98776e-07
 2.68194e-07
 2.42076e-07
 2.19593e-07
 2.00101e-07
 1.83093e-07
 1.68163e-07
 1.54987e-07
 1.43300e-07
 1.32886e-07
 1.65215e-06
 1.28508e-06
 1.02933e-06
 8.43623e-07
 7.04337e-07
 5.97097e-07
 5.12723e-07
 4.45120e-07
 3.90102e-07
 3.44719e-07
 3.06839e-07
 2.74891e-07
 2.47695e-07
 2.24351e-07
 2.04164e-07
 1.86587e-07
 1.71190e-07
 1.57625e-07
 1.45612e-07
 1.34924e-07
 1.73603e-06
 1.34040e-06
 1.06774e-06
 8.71382e-07
 7.25050e-07
 6.12962e-07
 5.25145e-07
 4.55028e-07
 3.98132e-07
 3.51317e-07
 3.12327e-07
 2.79504e-07
 2.51610e-07
 2.27702e-07
 2.07054e-07
 1.89098e-07
 1.73384e-07
 1.59554e-07
 1.47318e-07
 1.36439e-07
 1.74559e-06
 1.35029e-06
 1.07671e-06
 8.79179e-07
 7.31734e-07
 6.18674e-07
 5.30033e-07
 4.59226e-07
 4.01754e-07
 3.54459e-07
 3.15065e-07
 2.81903e-07
 2.53722e-07
 2.29570e-07
 2.08713e-07
 1.90578e-07
 1.74709e-07
 1.60745e-07
 1.48392e-07
 1.37410e-07
 1.68052e-06
 1.31424e-06
 1.05580e-06
 8.66682e-07
 7.24138e-07
 6.14041e-07
 5.27241e-07
 4.57602e-07
 4.00882e-07
 3.54076e-07
 3.15001e-07
 2.82045e-07
 2.53996e-07
 2.29926e-07
 2.09117e-07
 1.91007e-07
 1.75149e-07
 1.61184e-07
 1.48823e-07
 1.37829e-07
 1.55612e-06
 1.23939e-06
 1.00862e-06
 8.35836e-07
 7.03366e-07
 5.99714e-07
 5.17166e-07
 4.50404e-07
 3.95675e-07
 3.50271e-07
 3.12201e-07
 2.79975e-07
 2.52462e-07
 2.28790e-07
 2.08280e-07
 1.90395e-07
 1.74708e-07
 1.60874e-07
 1.48613e-07
 1.37697e-07
 1.39605e-06
 1.13776e-06
 9.41685e-07
 7.90345e-07
 6.71619e-07
 5.77053e-07
 5.00673e-07
 4.38199e-07
 3.86511e-07
 3.43304e-07
 3.06846e-07
 2.75820e-07
 2.49211e-07
 2.26230e-07
 2.06251e-07
 1.88779e-07
 1.73415e-07
 1.59836e-07
 1.47779e-07
 1.37025e-07
 1.22347e-06
 1.02244e-06
 8.62595e-07
 7.34789e-07
 6.31744e-07
 5.47877e-07
 4.78958e-07
 4.21790e-07
 3.73943e-07
 3.33561e-07
 2.99211e-07
 2.69779e-07
 2.44390e-07
 2.22352e-07
 2.03110e-07
 1.86219e-07
 1.71317e-07
 1.58108e-07
 1.46348e-07
 1.35836e-07
 1.05550e-06
 9.04498e-07
 7.78444e-07
 6.73742e-07
 5.86737e-07
 5.14185e-07
 4.53378e-07
 4.02115e-07
 3.58630e-07
 3.21513e-07
 2.89638e-07
 2.62104e-07
 2.38185e-07
 2.17298e-07
 1.98964e-07
 1.82797e-07
 1.68476e-07
 1.55737e-07
 1.44360e-07
 1.34161e-07
 9.02179e-07
 7.91693e-07
 6.94820e-07
 6.11130e-07
 5.39339e-07
 4.77900e-07
 4.25293e-07
 3.80147e-07
 3.41275e-07
 3.07674e-07
 2.78506e-07
 2.53077e-07
 2.30810e-07
 2.11230e-07
 1.93940e-07
 1.78612e-07
 1.64970e-07
 1.52785e-07
 1.41862e-07
 1.32038e-07
 7.67782e-07
 6.88508e-07
 6.15524e-07
 5.49925e-07
 4.91795e-07
 4.40691e-07
 3.95941e-07
 3.56804e-07
 3.22563e-07
 2.92558e-07
 2.66205e-07
 2.42995e-07
 2.22494e-07
 2.04326e-07
 1.88175e-07
 1.73771e-07
 1.60885e-07
 1.49320e-07
 1.38910e-07
 1.29512e-07
 6.52908e-07
 5.96890e-07
 5.42746e-07
 4.92120e-07
 4.45767e-07
 4.03889e-07
 3.66362e-07
 3.32894e-07
 3.03118e-07
 2.76648e-07
 2.53109e-07
 2.32152e-07
 2.13464e-07
 1.96766e-07
 1.81812e-07
 1.68389e-07
 1.56310e-07
 1.45415e-07
 1.35562e-07
 1.26631e-07
