scalar
part
         1
quad4
 4.85794e-07
 4.53203e-07
 4.19714e-07
 3.86937e-07
 3.55811e-07
 3.26816e-07
 3.00145e-07
 2.75809e-07
 2.53717e-07
 2.33722e-07
 2.15652e-07
 1.99331e-07
 1.84586e-07
 1.71253e-07
 1.59184e-07
 1.48243e-07
 1.38309e-07
 1.29273e-07
 1.21040e-07
 1.13523e-07
 5.81832e-07
 5.32145e-07
 4.84327e-07
 4.39782e-07
 3.99099e-07
 3.62387e-07
 3.29493e-07
 3.00138e-07
 2.73985e-07
 2.50695e-07
 2.29941e-07
 2.11422e-07
 1.94868e-07
 1.80040e-07
 1.66730e-07
 1.54752e-07
 1.43948e-07
 1.34179e-07
 1.25325e-07
 1.17281e-07
 6.96813e-07
 6.23442e-07
 5.56857e-07
 4.97603e-07
 4.45433e-07
 3.99746e-07
 3.59817e-07
 3.24919e-07
 2.94377e-07
 2.67588e-07
 2.44026e-07
 2.23240e-07
 2.04844e-07
 1.88510e-07
 1.73959e-07
 1.60955e-07
 1.49297e-07
 1.38813e-07
 1.29357e-07
 1.20804e-07
 8.31868e-07
 7.26703e-07
 6.36341e-07
 5.59309e-07
 4.93787e-07
 4.38000e-07
 3.90368e-07
 3.49542e-07
 3.14397e-07
 2.84000e-07
 2.57587e-07
 2.34528e-07
 2.14305e-07
 1.96493e-07
 1.80736e-07
 1.66741e-07
 1.54264e-07
 1.43100e-07
 1.33074e-07
 1.24042e-07
 9.85808e-07
 8.39786e-07
 7.20600e-07
 6.23001e-07
 5.42606e-07
 4.75916e-07
 4.20181e-07
 3.73254e-07
 3.33458e-07
 2.99475e-07
 2.70265e-07
 2.45004e-07
 2.23030e-07
 2.03812e-07
 1.86918e-07
 1.71997e-07
 1.58758e-07
 1.46964e-07
 1.36414e-07
 1.26943e-07
 1.15352e-06
 9.58081e-07
 8.05955e-07
 6.85877e-07
 5.89797e-07
 5.11936e-07
 4.48097e-07
 3.95189e-07
 3.50909e-07
 3.13518e-07
 2.81684e-07
 2.54377e-07
 2.30792e-07
 2.10291e-07
 1.92366e-07
 1.76610e-07
 1.62689e-07
 1.50333e-07
 1.39318e-07
 1.29459e-07
 1.32453e-06
 1.07408e-06
 8.87173e-07
 7.44302e-07
 6.32819e-07
 5.44268e-07
 4.72834e-07
 4.14419e-07
 3.66071e-07
 3.25626e-07
 2.91464e-07
 2.62360e-07
 2.37370e-07
 2.15758e-07
 1.96947e-07
 1.80476e-07
 1.65974e-07
 1.53142e-07
 1.41733e-07
 1.31547e-07
 1.48266e-06
 1.17768e-06
 9.57830e-07
 7.94102e-07
 6.68901e-07
 5.71032e-07
 4.93093e-07
 4.30028e-07
 3.78288e-07
 3.35321e-07
 2.99254e-07
 2.68690e-07
 2.42565e-07
 2.20062e-07
 2.00542e-07
 1.83502e-07
 1.68540e-07
 1.55331e-07
 1.43613e-07
 1.33169e-07
 1.60796e-06
 1.25753e-06
 1.01117e-06
 8.31104e-07
 6.95377e-07
 5.90475e-07
 5.07692e-07
 4.41203e-07
 3.86986e-07
 3.42192e-07
 3.04755e-07
 2.73145e-07
 2.46212e-07
 2.23076e-07
 2.03055e-07
 1.85614e-07
 1.70327e-07
 1.56854e-07
 1.44919e-07
 1.34296e-07
 1.68124e-06
 1.30334e-06
 1.04135e-06
 8.51824e-07
 7.10084e-07
 6.01209e-07
 5.15713e-07
 4.47319e-07
 3.91732e-07
 3.45933e-07
 3.07743e-07
 2.75562e-07
 2.48188e-07
 2.24708e-07
 2.04415e-07
 1.86756e-07
 1.71294e-07
 1.57678e-07
 1.45626e-07
 1.34906e-07
 1.68965e-06
 1.30854e-06
 1.04476e-06
 8.54155e-07
 7.11740e-07
 6.02422e-07
 5.16625e-07
 4.48019e-07
 3.92281e-07
 3.46370e-07
 3.08096e-07
 2.75851e-07
 2.48427e-07
 2.24908e-07
 2.04584e-07
 1.86900e-07
 1.71417e-07
 1.57785e-07
 1.45718e-07
 1.34987e-07
 1.63124e-06
 1.27218e-06
 1.02088e-06
 8.37816e-07
 7.00179e-07
 5.94012e-07
 5.10363e-07
 4.43262e-07
 3.88603e-07
 3.43483e-07
 3.05799e-07
 2.74001e-07
 2.46921e-07
 2.23670e-07
 2.03557e-07
 1.86042e-07
 1.70694e-07
 1.57172e-07
 1.45195e-07
 1.34538e-07
 1.51592e-06
 1.19933e-06
 9.72525e-07
 8.04440e-07
 6.76397e-07
 5.76611e-07
 4.97339e-07
 4.33324e-07
 3.80890e-07
 3.37406e-07
 3.00949e-07
 2.70083e-07
 2.43723e-07
 2.21033e-07
 2.01365e-07
 1.84204e-07
 1.69143e-07
 1.55853e-07
 1.44067e-07
 1.33568e-07
 1.36218e-06
 1.09967e-06
 9.05110e-07
 7.57228e-07
 6.42367e-07
 5.51478e-07
 4.78385e-07
 4.18767e-07
 3.69531e-07
 3.28416e-07
 2.93743e-07
 2.64242e-07
 2.38939e-07
 2.17080e-07
 1.98069e-07
 1.81435e-07
 1.66801e-07
 1.53858e-07
 1.42358e-07
 1.32095e-07
 1.19105e-06
 9.84850e-07
 8.25418e-07
 7.00304e-07
 6.00692e-07
 5.20309e-07
 4.54634e-07
 4.00370e-07
 3.55070e-07
 3.16901e-07
 2.84465e-07
 2.56686e-07
 2.32727e-07
 2.11927e-07
 1.93760e-07
 1.77806e-07
 1.63722e-07
 1.51231e-07
 1.40103e-07
 1.30148e-07
 1.02048e-06
 8.65737e-07
 7.40196e-07
 6.37970e-07
 5.54186e-07
 4.84990e-07
 4.27380e-07
 3.79035e-07
 3.38151e-07
 3.03326e-07
 2.73456e-07
 2.47671e-07
 2.25278e-07
 2.05722e-07
 1.88552e-07
 1.73404e-07
 1.59978e-07
 1.48026e-07
 1.37345e-07
 1.27762e-07
 8.62483e-07
 7.50666e-07
 6.55112e-07
 5.74086e-07
 5.05504e-07
 4.47370e-07
 3.97930e-07
 3.55700e-07
 3.19456e-07
 2.88193e-07
 2.61091e-07
 2.37479e-07
 2.16809e-07
 1.98631e-07
 1.82574e-07
 1.68331e-07
 1.55648e-07
 1.44309e-07
 1.34137e-07
 1.24980e-07
 7.23166e-07
 6.44905e-07
 5.74249e-07
 5.11692e-07
 4.56878e-07
 4.09087e-07
 3.67487e-07
 3.31257e-07
 2.99651e-07
 2.72006e-07
 2.47752e-07
 2.26403e-07
 2.07546e-07
 1.90832e-07
 1.75966e-07
 1.62699e-07
 1.50820e-07
 1.40150e-07
 1.30536e-07
 1.21848e-07
 6.04232e-07
 5.51023e-07
 5.00094e-07
 4.52897e-07
 4.09999e-07
 3.71461e-07
 3.37072e-07
 3.06493e-07
 2.79341e-07
 2.55231e-07
 2.33803e-07
 2.14728e-07
 1.97713e-07
 1.82501e-07
 1.68869e-07
 1.56620e-07
 1.45587e-07
 1.35624e-07
 1.26603e-07
 1.18416e-07
 5.04749e-07
 4.69645e-07
 4.33815e-07
 3.98949e-07
 3.66007e-07
 3.35465e-07
 3.07487e-07
 2.82055e-07
 2.59047e-07
 2.38286e-07
 2.19577e-07
 2.02720e-07
 1.87524e-07
 1.73811e-07
 1.61421e-07
 1.50207e-07
 1.40040e-07
 1.30805e-07
 1.22400e-07
 1.14736e-07
