# vtk DataFile Version 2.0
gauge_2
ASCII
DATASET POLYDATA
POINTS 47 double
0.2 0.0329993 0.005
0.2 0.0359992 0.005
0.2 0.0389992 0.005
0.2 0.0419991 0.005
0.2 0.044999 0.005
0.2 0.047999 0.005
0.2 0.0543799 0.005
0.2 0.0607609 0.005
0.2 0.0735228 0.005
0.2 0.0862847 0.005
0.2 0.0990467 0.005
0.2 0.111809 0.005
0.2 0.124571 0.005
0.2 0.137332 0.005
0.2 0.150094 0.005
0.2 0.162856 0.005
0.2 0.175618 0.005
0.2 0.18838 0.005
0.2 0.201142 0.005
0.2 0.213904 0.005
0.2 0.226666 0.005
0.2 0.239428 0.005
0.2 0.25219 0.005
0.2 0.264952 0.005
0.2 0.277714 0.005
0.2 0.290476 0.005
0.2 0.303238 0.005
0.2 0.315999 0.005
0.2 0.328761 0.005
0.2 0.341523 0.005
0.2 0.354285 0.005
0.2 0.367047 0.005
0.2 0.379809 0.005
0.2 0.392571 0.005
0.2 0.405333 0.005
0.2 0.418095 0.005
0.2 0.430857 0.005
0.2 0.443619 0.005
0.2 0.456381 0.005
0.2 0.469143 0.005
0.2 0.481905 0.005
0.2 0.494666 0.005
0.2 0.507428 0.005
0.2 0.52019 0.005
0.2 0.532952 0.005
0.2 0.545714 0.005
0.2 0.558476 0.005
POINT_DATA 47
 FIELD attributes 1
alpha.water 1 47 float
3.68465e-05 2.42603e-05 1.36999e-05 8.04306e-06 4.23131e-06 2.49722e-06 1.19779e-06 8.44882e-07 1.11634e-07 2.54113e-08 6.53714e-09 3.30749e-09 1.23024e-09 2.91335e-10 7.70634e-11 1.88404e-11 1.05344e-12 8.56251e-13 2.23428e-13 1.18606e-13 8.17353e-14 1.68353e-14 1.53816e-15 7.43888e-16 1.66786e-16 7.49585e-18 -2.15621e-19 -1.39328e-21 1.50605e-20 1.53474e-21 5.13197e-23 1.14927e-25 4.46562e-28 3.01638e-30 1.13767e-32 3.16848e-35 3.42174e-38 3.66009e-42 1.57584e-47 3.85349e-51 7.96251e-57 3.04338e-60 8.80624e-65 2.59003e-70 6.22696e-74 1.55214e-78 2.10559e-86
