scalar
part
         1
quad4
 4.20872e-07
 3.96319e-07
 3.70020e-07
 3.43554e-07
 3.17898e-07
 2.93613e-07
 2.70980e-07
 2.50102e-07
 2.30973e-07
 2.13521e-07
 1.97639e-07
 1.83207e-07
 1.70096e-07
 1.58185e-07
 1.47356e-07
 1.37500e-07
 1.28520e-07
 1.20325e-07
 1.12837e-07
 1.05981e-07
 5.08292e-07
 4.68973e-07
 4.30105e-07
 3.93173e-07
 3.58913e-07
 3.27599e-07
 2.99241e-07
 2.73700e-07
 2.50767e-07
 2.30203e-07
 2.11767e-07
 1.95228e-07
 1.80375e-07
 1.67014e-07
 1.54974e-07
 1.44103e-07
 1.34266e-07
 1.25347e-07
 1.17241e-07
 1.09860e-07
 6.13816e-07
 5.53742e-07
 4.98191e-07
 4.48007e-07
 4.03270e-07
 3.63677e-07
 3.28761e-07
 2.98007e-07
 2.70908e-07
 2.46998e-07
 2.25857e-07
 2.07120e-07
 1.90469e-07
 1.75629e-07
 1.62365e-07
 1.50475e-07
 1.39787e-07
 1.30151e-07
 1.21440e-07
 1.13545e-07
 7.38961e-07
 6.50638e-07
 5.73655e-07
 5.07228e-07
 4.50138e-07
 4.01094e-07
 3.58895e-07
 3.22483e-07
 2.90952e-07
 2.63541e-07
 2.39614e-07
 2.18640e-07
 2.00181e-07
 1.83868e-07
 1.69397e-07
 1.56510e-07
 1.44993e-07
 1.34665e-07
 1.25373e-07
 1.16986e-07
 8.83331e-07
 7.58170e-07
 6.54797e-07
 5.69271e-07
 4.98190e-07
 4.38770e-07
 3.88779e-07
 3.46443e-07
 3.10358e-07
 2.79407e-07
 2.52700e-07
 2.29522e-07
 2.09298e-07
 1.91562e-07
 1.75932e-07
 1.62096e-07
 1.49795e-07
 1.38815e-07
 1.28978e-07
 1.20132e-07
 1.04318e-06
 8.72655e-07
 7.38539e-07
 6.31715e-07
 5.45573e-07
 4.75298e-07
 4.17346e-07
 3.69080e-07
 3.28511e-07
 2.94124e-07
 2.64751e-07
 2.39481e-07
 2.17599e-07
 1.98534e-07
 1.81831e-07
 1.67120e-07
 1.54101e-07
 1.42527e-07
 1.32195e-07
 1.22935e-07
 1.20998e-06
 9.87727e-07
 8.20296e-07
 6.91290e-07
 5.89950e-07
 5.08999e-07
 4.43381e-07
 3.89501e-07
 3.44749e-07
 3.07196e-07
 2.75392e-07
 2.48232e-07
 2.24862e-07
 2.04613e-07
 1.86959e-07
 1.71477e-07
 1.57827e-07
 1.45733e-07
 1.34970e-07
 1.25348e-07
 1.36985e-06
 1.09439e-06
 8.94184e-07
 7.44086e-07
 6.28676e-07
 5.38051e-07
 4.65606e-07
 4.06797e-07
 3.58416e-07
 3.18142e-07
 2.84265e-07
 2.55504e-07
 2.30880e-07
 2.09640e-07
 1.91192e-07
 1.75068e-07
 1.60895e-07
 1.48371e-07
 1.37251e-07
 1.27333e-07
 1.50463e-06
 1.18196e-06
 9.53673e-07
 7.85982e-07
 6.59076e-07
 5.60672e-07
 4.82805e-07
 4.20121e-07
 3.68908e-07
 3.26524e-07
 2.91049e-07
 2.61058e-07
 2.35475e-07
 2.13477e-07
 1.94423e-07
 1.77811e-07
 1.63240e-07
 1.50389e-07
 1.38998e-07
 1.28854e-07
 1.59518e-06
 1.23989e-06
 9.92648e-07
 8.13273e-07
 6.78817e-07
 5.75344e-07
 4.93964e-07
 4.28778e-07
 3.75739e-07
 3.31997e-07
 2.95492e-07
 2.64708e-07
 2.38505e-07
 2.16017e-07
 1.96570e-07
 1.79641e-07
 1.64811e-07
 1.51746e-07
 1.40178e-07
 1.29885e-07
 1.62633e-06
 1.26025e-06
 1.00668e-06
 8.23348e-07
 6.86292e-07
 5.81041e-07
 4.98404e-07
 4.32305e-07
 3.78587e-07
 3.34330e-07
 2.97427e-07
 2.66330e-07
 2.39879e-07
 2.17190e-07
 1.97580e-07
 1.80516e-07
 1.65575e-07
 1.52417e-07
 1.40770e-07
 1.30410e-07
 1.59209e-06
 1.24005e-06
 9.94138e-07
 8.15254e-07
 6.80915e-07
 5.77387e-07
 4.95877e-07
 4.30533e-07
 3.77334e-07
 3.33438e-07
 2.96791e-07
 2.65878e-07
 2.39560e-07
 2.16969e-07
 1.97432e-07
 1.80421e-07
 1.65519e-07
 1.52391e-07
 1.40765e-07
 1.30422e-07
 1.49854e-06
 1.18232e-06
 9.56653e-07
 7.89929e-07
 6.63246e-07
 5.64728e-07
 4.86602e-07
 4.23607e-07
 3.72075e-07
 3.29387e-07
 2.93630e-07
 2.63384e-07
 2.37573e-07
 2.15371e-07
 1.96136e-07
 1.79363e-07
 1.64649e-07
 1.51672e-07
 1.40168e-07
 1.29923e-07
 1.36195e-06
 1.09536e-06
 8.98779e-07
 7.50010e-07
 6.34886e-07
 5.44073e-07
 4.71237e-07
 4.11964e-07
 3.63111e-07
 3.22386e-07
 2.88094e-07
 2.58956e-07
 2.33996e-07
 2.12454e-07
 1.93738e-07
 1.77377e-07
 1.62992e-07
 1.50281e-07
 1.38993e-07
 1.28926e-07
 1.20291e-06
 9.90259e-07
 8.26837e-07
 6.99274e-07
 5.98182e-07
 5.16931e-07
 4.50777e-07
 3.96282e-07
 3.50909e-07
 3.12767e-07
 2.80421e-07
 2.52769e-07
 2.28958e-07
 2.08316e-07
 1.90312e-07
 1.74518e-07
 1.60592e-07
 1.48252e-07
 1.37269e-07
 1.27452e-07
 1.04003e-06
 8.78001e-07
 7.47492e-07
 6.41890e-07
 5.55818e-07
 4.85074e-07
 4.26425e-07
 3.77389e-07
 3.36057e-07
 3.00950e-07
 2.70916e-07
 2.45048e-07
 2.22629e-07
 2.03085e-07
 1.85956e-07
 1.70865e-07
 1.57508e-07
 1.45634e-07
 1.35033e-07
 1.25532e-07
 8.86377e-07
 7.67374e-07
 6.66579e-07
 5.81755e-07
 5.10428e-07
 4.50313e-07
 3.99442e-07
 3.56182e-07
 3.19198e-07
 2.87405e-07
 2.59928e-07
 2.36055e-07
 2.15207e-07
 1.96913e-07
 1.80787e-07
 1.66508e-07
 1.53813e-07
 1.42482e-07
 1.32330e-07
 1.23203e-07
 7.49065e-07
 6.64203e-07
 5.88469e-07
 5.22044e-07
 4.64302e-07
 4.14298e-07
 3.71027e-07
 3.33537e-07
 3.00979e-07
 2.72616e-07
 2.47821e-07
 2.26066e-07
 2.06905e-07
 1.89966e-07
 1.74935e-07
 1.61549e-07
 1.49587e-07
 1.38861e-07
 1.29213e-07
 1.20507e-07
 6.30605e-07
 5.71571e-07
 5.15960e-07
 4.65049e-07
 4.19228e-07
 3.78401e-07
 3.42223e-07
 3.10248e-07
 2.82006e-07
 2.57046e-07
 2.34953e-07
 2.15359e-07
 1.97939e-07
 1.82412e-07
 1.68534e-07
 1.56096e-07
 1.44917e-07
 1.34843e-07
 1.25739e-07
 1.17491e-07
 5.30651e-07
 4.90524e-07
 4.50507e-07
 4.12203e-07
 3.76466e-07
 3.43666e-07
 3.13873e-07
 2.86985e-07
 2.62809e-07
 2.41113e-07
 2.21654e-07
 2.04196e-07
 1.88518e-07
 1.74419e-07
 1.61718e-07
 1.50256e-07
 1.39890e-07
 1.30497e-07
 1.21966e-07
 1.14202e-07
