scalar
part
         1
quad4
 4.72719e-07
 4.41932e-07
 4.10033e-07
 3.78632e-07
 3.48681e-07
 3.20683e-07
 2.94855e-07
 2.71230e-07
 2.49738e-07
 2.30250e-07
 2.12611e-07
 1.96656e-07
 1.82223e-07
 1.69158e-07
 1.57319e-07
 1.46577e-07
 1.36815e-07
 1.27929e-07
 1.19826e-07
 1.12424e-07
 5.67313e-07
 5.19893e-07
 4.74005e-07
 4.31078e-07
 3.91740e-07
 3.56141e-07
 3.24169e-07
 2.95576e-07
 2.70057e-07
 2.47294e-07
 2.26982e-07
 2.08834e-07
 1.92594e-07
 1.78033e-07
 1.64950e-07
 1.53167e-07
 1.42531e-07
 1.32908e-07
 1.24180e-07
 1.16246e-07
 6.80806e-07
 6.10264e-07
 5.45995e-07
 4.88616e-07
 4.37958e-07
 3.93490e-07
 3.54547e-07
 3.20450e-07
 2.90562e-07
 2.64310e-07
 2.41193e-07
 2.20776e-07
 2.02690e-07
 1.86616e-07
 1.72286e-07
 1.59471e-07
 1.47973e-07
 1.37628e-07
 1.28293e-07
 1.19844e-07
 8.14454e-07
 7.12768e-07
 6.25128e-07
 5.50219e-07
 4.86354e-07
 4.31868e-07
 3.85264e-07
 3.45257e-07
 3.10770e-07
 2.80906e-07
 2.54929e-07
 2.32228e-07
 2.12304e-07
 1.94740e-07
 1.79192e-07
 1.65375e-07
 1.53049e-07
 1.42014e-07
 1.32100e-07
 1.23165e-07
 9.67287e-07
 8.25429e-07
 7.09343e-07
 6.14065e-07
 5.35424e-07
 4.70073e-07
 4.15373e-07
 3.69256e-07
 3.30100e-07
 2.96629e-07
 2.67834e-07
 2.42910e-07
 2.21214e-07
 2.02227e-07
 1.85526e-07
 1.70767e-07
 1.57667e-07
 1.45990e-07
 1.35542e-07
 1.26158e-07
 1.13454e-06
 9.43860e-07
 7.95099e-07
 6.77437e-07
 5.83123e-07
 5.06577e-07
 4.43732e-07
 3.91589e-07
 3.47907e-07
 3.10987e-07
 2.79530e-07
 2.52529e-07
 2.29193e-07
 2.08899e-07
 1.91146e-07
 1.75534e-07
 1.61735e-07
 1.49483e-07
 1.38557e-07
 1.28774e-07
 1.30620e-06
 1.06081e-06
 8.77297e-07
 7.36768e-07
 6.26947e-07
 5.39604e-07
 4.69067e-07
 4.11331e-07
 3.63508e-07
 3.23474e-07
 2.89638e-07
 2.60796e-07
 2.36019e-07
 2.14584e-07
 1.95918e-07
 1.79569e-07
 1.65170e-07
 1.52425e-07
 1.41092e-07
 1.30970e-07
 1.46659e-06
 1.16640e-06
 9.49605e-07
 7.87920e-07
 6.64131e-07
 5.67270e-07
 4.90070e-07
 4.27560e-07
 3.76243e-07
 3.33606e-07
 2.97800e-07
 2.67445e-07
 2.41489e-07
 2.19125e-07
 1.99721e-07
 1.82778e-07
 1.67897e-07
 1.54757e-07
 1.43098e-07
 1.32706e-07
 1.59606e-06
 1.24933e-06
 1.00526e-06
 8.26689e-07
 6.91981e-07
 5.87799e-07
 5.05540e-07
 4.39442e-07
 3.85524e-07
 3.40962e-07
 3.03708e-07
 2.72245e-07
 2.45431e-07
 2.22394e-07
 2.02455e-07
 1.85082e-07
 1.69853e-07
 1.56430e-07
 1.44537e-07
 1.33950e-07
 1.67520e-06
 1.29914e-06
 1.03828e-06
 8.49493e-07
 7.08261e-07
 5.99749e-07
 5.14520e-07
 4.46328e-07
 3.90897e-07
 3.45220e-07
 3.07128e-07
 2.75026e-07
 2.47718e-07
 2.24292e-07
 2.04044e-07
 1.86424e-07
 1.70995e-07
 1.57408e-07
 1.45380e-07
 1.34681e-07
 1.69030e-06
 1.30876e-06
 1.04476e-06
 8.54051e-07
 7.11582e-07
 6.02239e-07
 5.16433e-07
 4.47827e-07
 3.92094e-07
 3.46190e-07
 3.07925e-07
 2.75688e-07
 2.48274e-07
 2.24763e-07
 2.04447e-07
 1.86771e-07
 1.71296e-07
 1.57671e-07
 1.45611e-07
 1.34885e-07
 1.63818e-06
 1.27663e-06
 1.02386e-06
 8.39883e-07
 7.01652e-07
 5.95086e-07
 5.11159e-07
 4.43861e-07
 3.89058e-07
 3.43832e-07
 3.06069e-07
 2.74210e-07
 2.47084e-07
 2.23796e-07
 2.03654e-07
 1.86116e-07
 1.70751e-07
 1.57214e-07
 1.45226e-07
 1.34559e-07
 1.52773e-06
 1.20727e-06
 9.78070e-07
 8.08436e-07
 6.79353e-07
 5.78845e-07
 4.99059e-07
 4.34670e-07
 3.81957e-07
 3.38263e-07
 3.01643e-07
 2.70651e-07
 2.44192e-07
 2.21423e-07
 2.01690e-07
 1.84478e-07
 1.69374e-07
 1.56049e-07
 1.44234e-07
 1.33710e-07
 1.37703e-06
 1.11008e-06
 9.12620e-07
 7.62784e-07
 6.46570e-07
 5.54717e-07
 4.80924e-07
 4.20787e-07
 3.71158e-07
 3.29742e-07
 2.94835e-07
 2.65149e-07
 2.39699e-07
 2.17720e-07
 1.98613e-07
 1.81900e-07
 1.67200e-07
 1.54203e-07
 1.42657e-07
 1.32355e-07
 1.20728e-06
 9.96698e-07
 8.34240e-07
 7.06997e-07
 6.05860e-07
 5.24362e-07
 4.57859e-07
 4.02968e-07
 3.57189e-07
 3.18646e-07
 2.85915e-07
 2.57903e-07
 2.33755e-07
 2.12801e-07
 1.94509e-07
 1.78451e-07
 1.64281e-07
 1.51717e-07
 1.40528e-07
 1.30521e-07
 1.03685e-06
 8.78159e-07
 7.49735e-07
 6.45391e-07
 5.60034e-07
 4.89655e-07
 4.31145e-07
 3.82107e-07
 3.40683e-07
 3.05431e-07
 2.75221e-07
 2.49163e-07
 2.26548e-07
 2.06810e-07
 1.89490e-07
 1.74216e-07
 1.60685e-07
 1.48646e-07
 1.37889e-07
 1.28243e-07
 8.78227e-07
 7.63037e-07
 6.64892e-07
 5.81878e-07
 5.11768e-07
 4.52453e-07
 4.02091e-07
 3.59137e-07
 3.22319e-07
 2.90596e-07
 2.63123e-07
 2.39209e-07
 2.18291e-07
 1.99908e-07
 1.83681e-07
 1.69296e-07
 1.56492e-07
 1.45051e-07
 1.34792e-07
 1.25561e-07
 7.37870e-07
 6.56821e-07
 5.83922e-07
 5.19575e-07
 4.63338e-07
 4.14415e-07
 3.71910e-07
 3.34956e-07
 3.02764e-07
 2.74643e-07
 2.50000e-07
 2.28331e-07
 2.09208e-07
 1.92273e-07
 1.77222e-07
 1.63799e-07
 1.51787e-07
 1.41004e-07
 1.31293e-07
 1.22521e-07
 6.17726e-07
 5.62256e-07
 5.09430e-07
 4.60665e-07
 4.16481e-07
 3.76891e-07
 3.41642e-07
 3.10360e-07
 2.82630e-07
 2.58043e-07
 2.36220e-07
 2.16815e-07
 1.99525e-07
 1.84081e-07
 1.70253e-07
 1.57838e-07
 1.46662e-07
 1.36577e-07
 1.27451e-07
 1.19174e-07
 5.17011e-07
 4.80088e-07
 4.42678e-07
 4.06462e-07
 3.72382e-07
 3.40884e-07
 3.12108e-07
 2.86010e-07
 2.62445e-07
 2.41218e-07
 2.22117e-07
 2.04929e-07
 1.89454e-07
 1.75505e-07
 1.62912e-07
 1.51525e-07
 1.41209e-07
 1.31846e-07
 1.23330e-07
 1.15569e-07
