scalar
part
         1
quad4
 3.85494e-07
 3.65810e-07
 3.43732e-07
 3.20878e-07
 2.98290e-07
 2.76600e-07
 2.56162e-07
 2.37141e-07
 2.19586e-07
 2.03473e-07
 1.88734e-07
 1.75281e-07
 1.63013e-07
 1.51830e-07
 1.41632e-07
 1.32327e-07
 1.23828e-07
 1.16056e-07
 1.08940e-07
 1.02414e-07
 4.69167e-07
 4.35892e-07
 4.02091e-07
 3.69370e-07
 3.38595e-07
 3.10167e-07
 2.84201e-07
 2.60652e-07
 2.39384e-07
 2.20218e-07
 2.02963e-07
 1.87428e-07
 1.73430e-07
 1.60803e-07
 1.49396e-07
 1.39074e-07
 1.29714e-07
 1.21212e-07
 1.13473e-07
 1.06415e-07
 5.70894e-07
 5.18247e-07
 4.68694e-07
 4.23339e-07
 3.82494e-07
 3.46049e-07
 3.13695e-07
 2.85039e-07
 2.59669e-07
 2.37194e-07
 2.17253e-07
 1.99527e-07
 1.83731e-07
 1.69620e-07
 1.56982e-07
 1.45631e-07
 1.35410e-07
 1.26182e-07
 1.17827e-07
 1.10245e-07
 6.92506e-07
 6.13144e-07
 5.43112e-07
 4.82097e-07
 4.29250e-07
 3.83563e-07
 3.44043e-07
 3.09791e-07
 2.80017e-07
 2.54050e-07
 2.31318e-07
 2.11343e-07
 1.93724e-07
 1.78123e-07
 1.64259e-07
 1.51894e-07
 1.40828e-07
 1.30891e-07
 1.21940e-07
 1.13853e-07
 8.34105e-07
 7.19447e-07
 6.23884e-07
 5.44235e-07
 4.77639e-07
 4.21690e-07
 3.74421e-07
 3.34249e-07
 2.99905e-07
 2.70369e-07
 2.44825e-07
 2.22613e-07
 2.03197e-07
 1.86142e-07
 1.71091e-07
 1.57750e-07
 1.45876e-07
 1.35266e-07
 1.25751e-07
 1.17187e-07
 9.92646e-07
 8.33910e-07
 7.08190e-07
 6.07483e-07
 5.25893e-07
 4.59074e-07
 4.03792e-07
 3.57622e-07
 3.18723e-07
 2.85685e-07
 2.57412e-07
 2.33052e-07
 2.11927e-07
 1.93499e-07
 1.77335e-07
 1.63085e-07
 1.50463e-07
 1.39232e-07
 1.29198e-07
 1.20199e-07
 1.16045e-06
 9.50607e-07
 7.91675e-07
 6.68688e-07
 5.71736e-07
 4.94064e-07
 4.30951e-07
 3.79021e-07
 3.35812e-07
 2.99497e-07
 2.68701e-07
 2.42370e-07
 2.19689e-07
 2.00019e-07
 1.82855e-07
 1.67791e-07
 1.54500e-07
 1.42717e-07
 1.32224e-07
 1.22840e-07
 1.32439e-06
 1.06086e-06
 8.68574e-07
 7.23977e-07
 6.12524e-07
 5.24828e-07
 4.54606e-07
 3.97520e-07
 3.50498e-07
 3.11313e-07
 2.78321e-07
 2.50288e-07
 2.26270e-07
 2.05538e-07
 1.87520e-07
 1.71764e-07
 1.57908e-07
 1.45658e-07
 1.34776e-07
 1.25067e-07
 1.46656e-06
 1.15397e-06
 9.32292e-07
 7.69158e-07
 6.45519e-07
 5.49531e-07
 4.73500e-07
 4.12241e-07
 3.62154e-07
 3.20675e-07
 2.85938e-07
 2.56555e-07
 2.31479e-07
 2.09908e-07
 1.91218e-07
 1.74917e-07
 1.60615e-07
 1.47997e-07
 1.36810e-07
 1.26845e-07
 1.56722e-06
 1.21898e-06
 9.76428e-07
 8.00331e-07
 6.68255e-07
 5.66564e-07
 4.86552e-07
 4.22439e-07
 3.70257e-07
 3.27210e-07
 2.91276e-07
 2.60967e-07
 2.35164e-07
 2.13014e-07
 1.93858e-07
 1.77179e-07
 1.62566e-07
 1.49691e-07
 1.38289e-07
 1.28144e-07
 1.60970e-06
 1.24716e-06
 9.96092e-07
 8.14600e-07
 6.78941e-07
 5.74775e-07
 4.92998e-07
 4.27592e-07
 3.74442e-07
 3.30655e-07
 2.94146e-07
 2.63383e-07
 2.37218e-07
 2.14774e-07
 1.95378e-07
 1.78500e-07
 1.63722e-07
 1.50708e-07
 1.39189e-07
 1.28944e-07
 1.58630e-06
 1.23459e-06
 9.89116e-07
 8.10691e-07
 6.76785e-07
 5.73653e-07
 4.92496e-07
 4.27465e-07
 3.74543e-07
 3.30890e-07
 2.94459e-07
 2.63737e-07
 2.37589e-07
 2.15149e-07
 1.95747e-07
 1.78857e-07
 1.64064e-07
 1.51034e-07
 1.39497e-07
 1.29234e-07
 1.50186e-06
 1.18358e-06
 9.56696e-07
 7.89256e-07
 6.62161e-07
 5.63416e-07
 4.85177e-07
 4.22139e-07
 3.70608e-07
 3.27948e-07
 2.92235e-07
 2.62041e-07
 2.36286e-07
 2.14143e-07
 1.94966e-07
 1.78250e-07
 1.63591e-07
 1.50666e-07
 1.39212e-07
 1.29014e-07
 1.37220e-06
 1.10205e-06
 9.03097e-07
 7.52732e-07
 6.36526e-07
 5.44971e-07
 4.71623e-07
 4.11997e-07
 3.62898e-07
 3.22005e-07
 2.87598e-07
 2.58384e-07
 2.33374e-07
 2.11804e-07
 1.93073e-07
 1.76707e-07
 1.62325e-07
 1.49622e-07
 1.38346e-07
 1.28293e-07
 1.21797e-06
 1.00100e-06
 8.34521e-07
 7.04786e-07
 6.02135e-07
 5.19755e-07
 4.52776e-07
 3.97672e-07
 3.51848e-07
 3.13368e-07
 2.80768e-07
 2.52925e-07
 2.28969e-07
 2.08218e-07
 1.90131e-07
 1.74276e-07
 1.60304e-07
 1.47930e-07
 1.36923e-07
 1.27089e-07
 1.05806e-06
 8.91505e-07
 7.57649e-07
 6.49564e-07
 5.61640e-07
 4.89506e-07
 4.29805e-07
 3.79968e-07
 3.38021e-07
 3.02439e-07
 2.72034e-07
 2.45877e-07
 2.23230e-07
 2.03506e-07
 1.86234e-07
 1.71029e-07
 1.57582e-07
 1.45635e-07
 1.34977e-07
 1.25431e-07
 9.05942e-07
 7.82567e-07
 6.78409e-07
 5.90999e-07
 5.17682e-07
 4.56028e-07
 4.03962e-07
 3.59767e-07
 3.22048e-07
 2.89675e-07
 2.61735e-07
 2.37492e-07
 2.16347e-07
 1.97813e-07
 1.81491e-07
 1.67053e-07
 1.54228e-07
 1.42790e-07
 1.32550e-07
 1.23351e-07
 7.69113e-07
 6.80236e-07
 6.01304e-07
 5.32342e-07
 4.72589e-07
 4.20989e-07
 3.76448e-07
 3.37944e-07
 3.04573e-07
 2.75554e-07
 2.50229e-07
 2.28042e-07
 2.08528e-07
 1.91299e-07
 1.76029e-07
 1.62446e-07
 1.50319e-07
 1.39457e-07
 1.29694e-07
 1.20892e-07
 6.50418e-07
 5.87820e-07
 5.29277e-07
 4.75971e-07
 4.28202e-07
 3.85791e-07
 3.48326e-07
 3.15302e-07
 2.86204e-07
 2.60542e-07
 2.37872e-07
 2.17802e-07
 1.99987e-07
 1.84132e-07
 1.69980e-07
 1.57312e-07
 1.45940e-07
 1.35703e-07
 1.26461e-07
 1.18096e-07
 5.49774e-07
 5.06552e-07
 4.63913e-07
 4.23410e-07
 3.85841e-07
 3.51518e-07
 3.20461e-07
 2.92525e-07
 2.67480e-07
 2.45060e-07
 2.24997e-07
 2.07034e-07
 1.90932e-07
 1.76477e-07
 1.63476e-07
 1.51759e-07
 1.41177e-07
 1.31599e-07
 1.22910e-07
 1.15011e-07
