# vtk DataFile Version 2.0
gauge_2
ASCII
DATASET POLYDATA
POINTS 56 double
0.2 0.0329993 0.005
0.2 0.0359992 0.005
0.2 0.0389992 0.005
0.2 0.0419991 0.005
0.2 0.044999 0.005
0.2 0.047999 0.005
0.2 0.0543799 0.005
0.2 0.0607609 0.005
0.2 0.0671419 0.005
0.2 0.0735228 0.005
0.2 0.0799038 0.005
0.2 0.0862847 0.005
0.2 0.0926657 0.005
0.2 0.0990467 0.005
0.2 0.105428 0.005
0.2 0.111809 0.005
0.2 0.11819 0.005
0.2 0.124571 0.005
0.2 0.130952 0.005
0.2 0.137332 0.005
0.2 0.143713 0.005
0.2 0.150094 0.005
0.2 0.156475 0.005
0.2 0.162856 0.005
0.2 0.169237 0.005
0.2 0.175618 0.005
0.2 0.18838 0.005
0.2 0.201142 0.005
0.2 0.213904 0.005
0.2 0.226666 0.005
0.2 0.239428 0.005
0.2 0.25219 0.005
0.2 0.264952 0.005
0.2 0.277714 0.005
0.2 0.290476 0.005
0.2 0.303238 0.005
0.2 0.315999 0.005
0.2 0.328761 0.005
0.2 0.341523 0.005
0.2 0.354285 0.005
0.2 0.367047 0.005
0.2 0.379809 0.005
0.2 0.392571 0.005
0.2 0.405333 0.005
0.2 0.418095 0.005
0.2 0.430857 0.005
0.2 0.443619 0.005
0.2 0.456381 0.005
0.2 0.469143 0.005
0.2 0.481905 0.005
0.2 0.494666 0.005
0.2 0.507428 0.005
0.2 0.52019 0.005
0.2 0.532952 0.005
0.2 0.545714 0.005
0.2 0.558476 0.005
POINT_DATA 56
 FIELD attributes 1
alpha.water 1 56 float
1 1 1 1 1 1 1 1 1 0.999999 0.999988 0.99995 0.999879 0.983974 0.753523 0.273926 0.0045141 9.13439e-05 0.000364001 0.00136383 0.00219916 0.00233911 0.00225619 0.0015032 0.000426882 1.0325e-05 5.10658e-05 8.58758e-05 4.19327e-05 -7.19845e-13 5.34512e-13 6.39717e-13 1.51545e-13 3.70774e-14 1.60398e-14 8.91568e-15 4.46416e-15 1.49305e-15 2.40276e-16 4.0257e-17 -2.54598e-20 -6.44646e-19 -5.60414e-20 -2.25632e-21 -4.2522e-23 -1.88101e-25 3.91034e-31 1.14919e-33 3.37917e-36 -1.41809e-38 -3.36477e-40 3.08534e-44 3.46326e-47 2.27018e-50 2.5197e-55 -1.55464e-56
