scalar
part
         1
quad4
 3.38567e-07
 3.27486e-07
 3.12702e-07
 2.95921e-07
 2.78326e-07
 2.60707e-07
 2.43569e-07
 2.27217e-07
 2.11816e-07
 1.97441e-07
 1.84106e-07
 1.71785e-07
 1.60434e-07
 1.49992e-07
 1.40394e-07
 1.31575e-07
 1.23469e-07
 1.16016e-07
 1.09157e-07
 1.02839e-07
 4.19826e-07
 3.96838e-07
 3.71446e-07
 3.45489e-07
 3.20098e-07
 2.95928e-07
 2.73321e-07
 2.52416e-07
 2.33229e-07
 2.15704e-07
 1.99743e-07
 1.85228e-07
 1.72038e-07
 1.60049e-07
 1.49146e-07
 1.39220e-07
 1.30174e-07
 1.21917e-07
 1.14370e-07
 1.07460e-07
 5.20230e-07
 4.79707e-07
 4.39641e-07
 4.01611e-07
 3.66382e-07
 3.34228e-07
 3.05149e-07
 2.78993e-07
 2.55534e-07
 2.34522e-07
 2.15702e-07
 1.98834e-07
 1.83695e-07
 1.70087e-07
 1.57830e-07
 1.46768e-07
 1.36763e-07
 1.27693e-07
 1.19453e-07
 1.11951e-07
 6.42543e-07
 5.77085e-07
 5.17371e-07
 4.63949e-07
 4.16670e-07
 3.75065e-07
 3.38541e-07
 3.06489e-07
 2.78336e-07
 2.53559e-07
 2.31702e-07
 2.12366e-07
 1.95211e-07
 1.79942e-07
 1.66312e-07
 1.54106e-07
 1.43142e-07
 1.33265e-07
 1.24342e-07
 1.16258e-07
 7.88280e-07
 6.88794e-07
 6.03787e-07
 5.31464e-07
 4.69954e-07
 4.17541e-07
 3.72734e-07
 3.34275e-07
 3.01117e-07
 2.72396e-07
 2.47402e-07
 2.25551e-07
 2.06361e-07
 1.89435e-07
 1.74443e-07
 1.61112e-07
 1.49211e-07
 1.38550e-07
 1.28966e-07
 1.20322e-07
 9.56351e-07
 8.12730e-07
 6.96699e-07
 6.02213e-07
 5.24622e-07
 4.60364e-07
 4.06709e-07
 3.61549e-07
 3.23251e-07
 2.90541e-07
 2.62416e-07
 2.38082e-07
 2.16903e-07
 1.98369e-07
 1.82067e-07
 1.67660e-07
 1.54868e-07
 1.43464e-07
 1.33257e-07
 1.24088e-07
 1.14140e-06
 9.44073e-07
 7.92230e-07
 6.73218e-07
 5.78431e-07
 5.01857e-07
 4.39208e-07
 3.87366e-07
 3.44023e-07
 3.07450e-07
 2.76325e-07
 2.49634e-07
 2.26583e-07
 2.06547e-07
 1.89027e-07
 1.73623e-07
 1.60011e-07
 1.47925e-07
 1.37148e-07
 1.27498e-07
 1.33223e-06
 1.07474e-06
 8.84689e-07
 7.40496e-07
 6.28579e-07
 5.40029e-07
 4.68805e-07
 4.10690e-07
 3.62672e-07
 3.22554e-07
 2.88702e-07
 2.59883e-07
 2.35151e-07
 2.13771e-07
 1.95167e-07
 1.78880e-07
 1.64541e-07
 1.51854e-07
 1.40574e-07
 1.30502e-07
 1.51106e-06
 1.19347e-06
 9.66861e-07
 7.99335e-07
 6.71928e-07
 5.72747e-07
 4.94018e-07
 4.30473e-07
 3.78443e-07
 3.35304e-07
 2.99138e-07
 2.68520e-07
 2.42372e-07
 2.19863e-07
 2.00348e-07
 1.83319e-07
 1.68372e-07
 1.55180e-07
 1.43479e-07
 1.33053e-07
 1.65474e-06
 1.28705e-06
 1.03089e-06
 8.44882e-07
 7.05375e-07
 5.97969e-07
 5.13466e-07
 4.45760e-07
 3.90660e-07
 3.45209e-07
 3.07274e-07
 2.75278e-07
 2.48043e-07
 2.24665e-07
 2.04449e-07
 1.86847e-07
 1.71427e-07
 1.57843e-07
 1.45814e-07
 1.35110e-07
 1.73961e-06
 1.34304e-06
 1.06976e-06
 8.72977e-07
 7.26341e-07
 6.14029e-07
 5.26041e-07
 4.55791e-07
 3.98789e-07
 3.51890e-07
 3.12830e-07
 2.79950e-07
 2.52007e-07
 2.28059e-07
 2.07376e-07
 1.89390e-07
 1.73650e-07
 1.59797e-07
 1.47541e-07
 1.36644e-07
 1.74990e-06
 1.35344e-06
 1.07910e-06
 8.81055e-07
 7.33241e-07
 6.19911e-07
 5.31065e-07
 4.60099e-07
 4.02502e-07
 3.55107e-07
 3.15632e-07
 2.82402e-07
 2.54165e-07
 2.29966e-07
 2.09069e-07
 1.90899e-07
 1.75001e-07
 1.61011e-07
 1.48635e-07
 1.37634e-07
 1.68520e-06
 1.31770e-06
 1.05845e-06
 8.68764e-07
 7.25813e-07
 6.15414e-07
 5.28385e-07
 4.58568e-07
 4.01708e-07
 3.54789e-07
 3.15623e-07
 2.82592e-07
 2.54480e-07
 2.30358e-07
 2.09505e-07
 1.91356e-07
 1.75465e-07
 1.61472e-07
 1.49086e-07
 1.38070e-07
 1.56084e-06
 1.24297e-06
 1.01140e-06
 8.38042e-07
 7.05152e-07
 6.01184e-07
 5.18393e-07
 4.51443e-07
 3.96563e-07
 3.51038e-07
 3.12870e-07
 2.80563e-07
 2.52982e-07
 2.29254e-07
 2.08695e-07
 1.90769e-07
 1.75046e-07
 1.61181e-07
 1.48894e-07
 1.37954e-07
 1.40059e-06
 1.14129e-06
 9.44479e-07
 7.92596e-07
 6.73460e-07
 5.78580e-07
 5.01956e-07
 4.39288e-07
 3.87446e-07
 3.44113e-07
 3.07552e-07
 2.76441e-07
 2.49762e-07
 2.26720e-07
 2.06690e-07
 1.89174e-07
 1.73773e-07
 1.60161e-07
 1.48075e-07
 1.37296e-07
 1.22767e-06
 1.02580e-06
 8.65318e-07
 7.37019e-07
 6.33592e-07
 5.49425e-07
 4.80268e-07
 4.22909e-07
 3.74908e-07
 3.34399e-07
 2.99945e-07
 2.70426e-07
 2.44964e-07
 2.22864e-07
 2.03569e-07
 1.86632e-07
 1.71691e-07
 1.58448e-07
 1.46658e-07
 1.36120e-07
 1.05931e-06
 9.07628e-07
 7.81035e-07
 6.75902e-07
 5.88552e-07
 5.15723e-07
 4.54691e-07
 4.03245e-07
 3.59610e-07
 3.22368e-07
 2.90390e-07
 2.62768e-07
 2.38776e-07
 2.17826e-07
 1.99439e-07
 1.83225e-07
 1.68864e-07
 1.56089e-07
 1.44681e-07
 1.34456e-07
 9.05576e-07
 7.94560e-07
 6.97244e-07
 6.13186e-07
 5.41091e-07
 4.79402e-07
 4.26589e-07
 3.81271e-07
 3.42256e-07
 3.08535e-07
 2.79267e-07
 2.53752e-07
 2.31412e-07
 2.11769e-07
 1.94426e-07
 1.79051e-07
 1.65368e-07
 1.53147e-07
 1.42193e-07
 1.32342e-07
 7.70796e-07
 6.91109e-07
 6.17765e-07
 5.51858e-07
 4.93466e-07
 4.42140e-07
 3.97203e-07
 3.57909e-07
 3.23534e-07
 2.93416e-07
 2.66966e-07
 2.43674e-07
 2.23101e-07
 2.04872e-07
 1.88668e-07
 1.74218e-07
 1.61291e-07
 1.49690e-07
 1.39248e-07
 1.29823e-07
 6.55573e-07
 5.99234e-07
 5.44801e-07
 4.93919e-07
 4.47343e-07
 4.05272e-07
 3.67579e-07
 3.33968e-07
 3.04070e-07
 2.77494e-07
 2.53863e-07
 2.32828e-07
 2.14072e-07
 1.97314e-07
 1.82308e-07
 1.68840e-07
 1.56721e-07
 1.45790e-07
 1.35906e-07
 1.26947e-07
