# vtk DataFile Version 2.0
gauge_2
ASCII
DATASET POLYDATA
POINTS 107 double
0.2 0.0314993 0.005
0.2 0.0329993 0.005
0.2 0.0344993 0.005
0.2 0.0359992 0.005
0.2 0.0374992 0.005
0.2 0.0389992 0.005
0.2 0.0404991 0.005
0.2 0.0419991 0.005
0.2 0.0434991 0.005
0.2 0.044999 0.005
0.2 0.046499 0.005
0.2 0.047999 0.005
0.2 0.0511894 0.005
0.2 0.0543799 0.005
0.2 0.0575704 0.005
0.2 0.0607609 0.005
0.2 0.0639514 0.005
0.2 0.0671419 0.005
0.2 0.0703323 0.005
0.2 0.0735228 0.005
0.2 0.0767133 0.005
0.2 0.0799038 0.005
0.2 0.0862847 0.005
0.2 0.0894752 0.005
0.2 0.0926657 0.005
0.2 0.0958562 0.005
0.2 0.0990467 0.005
0.2 0.102237 0.005
0.2 0.105428 0.005
0.2 0.108618 0.005
0.2 0.111809 0.005
0.2 0.114999 0.005
0.2 0.11819 0.005
0.2 0.12138 0.005
0.2 0.124571 0.005
0.2 0.130952 0.005
0.2 0.137332 0.005
0.2 0.150094 0.005
0.2 0.162856 0.005
0.2 0.175618 0.005
0.2 0.18838 0.005
0.2 0.201142 0.005
0.2 0.213904 0.005
0.2 0.226666 0.005
0.2 0.239428 0.005
0.2 0.245809 0.005
0.2 0.25219 0.005
0.2 0.25538 0.005
0.2 0.258571 0.005
0.2 0.261761 0.005
0.2 0.264952 0.005
0.2 0.268142 0.005
0.2 0.271333 0.005
0.2 0.274523 0.005
0.2 0.277714 0.005
0.2 0.280904 0.005
0.2 0.284095 0.005
0.2 0.290476 0.005
0.2 0.293666 0.005
0.2 0.296857 0.005
0.2 0.300047 0.005
0.2 0.303238 0.005
0.2 0.306428 0.005
0.2 0.309619 0.005
0.2 0.312809 0.005
0.2 0.315999 0.005
0.2 0.31919 0.005
0.2 0.32238 0.005
0.2 0.325571 0.005
0.2 0.328761 0.005
0.2 0.331952 0.005
0.2 0.335142 0.005
0.2 0.338333 0.005
0.2 0.341523 0.005
0.2 0.344714 0.005
0.2 0.347904 0.005
0.2 0.354285 0.005
0.2 0.357476 0.005
0.2 0.360666 0.005
0.2 0.363857 0.005
0.2 0.367047 0.005
0.2 0.370238 0.005
0.2 0.373428 0.005
0.2 0.376619 0.005
0.2 0.379809 0.005
0.2 0.383 0.005
0.2 0.38619 0.005
0.2 0.389381 0.005
0.2 0.392571 0.005
0.2 0.395762 0.005
0.2 0.398952 0.005
0.2 0.402142 0.005
0.2 0.405333 0.005
0.2 0.408523 0.005
0.2 0.411714 0.005
0.2 0.418095 0.005
0.2 0.430857 0.005
0.2 0.443619 0.005
0.2 0.456381 0.005
0.2 0.469143 0.005
0.2 0.481905 0.005
0.2 0.494666 0.005
0.2 0.507428 0.005
0.2 0.52019 0.005
0.2 0.532952 0.005
0.2 0.545714 0.005
0.2 0.558476 0.005
POINT_DATA 107
 FIELD attributes 1
alpha.water 1 107 float
1 1 1 1 1 1 1 1 1 1 1 1 1 0.999999 0.999995 0.999223 0.999985 0.80118 0.361817 0.0335626 1.16436e-09 2.26563e-09 1.26279e-05 1.62388e-05 0.000603374 0.000850947 0.0010119 0.00114622 0.000847094 0.000435129 0.000460071 0.000646144 0.000232523 5.53499e-05 5.31662e-05 3.1795e-05 8.12721e-05 0.000168588 9.58726e-05 5.77597e-05 9.86974e-05 0.000149965 0.000134111 7.05974e-05 4.15853e-06 7.40786e-09 6.84401e-09 8.34118e-09 0.000191176 0.000390312 0.000456065 -1.76304e-05 0.000599238 0.000834513 0.00100504 0.00125181 0.000899844 9.98453e-05 5.25043e-06 0.000525239 0.00123931 0.00344156 0.0135108 0.0105554 0.0122177 0.0118318 0.00725836 0.00357802 0.00244551 0.00289388 2.35615e-05 0.0010496 0.000122457 3.74129e-05 2.08034e-05 6.14488e-05 0.000172015 -5.95867e-08 7.36594e-05 0.000216783 0.00059427 -2.77836e-05 0.000913364 0.000891263 0.000793037 -2.95979e-05 0.000514822 0.000342083 0.00019317 -8.80004e-05 0.000494086 0.000553288 0.000395315 -0.000130501 2.58902e-05 5.54365e-05 0.00016671 0.000143916 4.23418e-05 3.80942e-06 5.08123e-06 1.27414e-06 1.92033e-12 1.73621e-15 1.32234e-15 -8.96134e-19 -2.47117e-24
