scalar
part
         1
quad4
 6.60101e-07
 6.03325e-07
 5.48484e-07
 4.97229e-07
 4.50316e-07
 4.07941e-07
 3.69978e-07
 3.36128e-07
 3.06017e-07
 2.79254e-07
 2.55457e-07
 2.34275e-07
 2.15389e-07
 1.98516e-07
 1.83409e-07
 1.69849e-07
 1.57650e-07
 1.46646e-07
 1.36697e-07
 1.27679e-07
 7.75843e-07
 6.95613e-07
 6.21773e-07
 5.55421e-07
 4.96633e-07
 4.44959e-07
 3.99716e-07
 3.60154e-07
 3.25545e-07
 2.95222e-07
 2.68594e-07
 2.45146e-07
 2.24436e-07
 2.06086e-07
 1.89776e-07
 1.75231e-07
 1.62220e-07
 1.50545e-07
 1.40037e-07
 1.30552e-07
 9.11199e-07
 7.99510e-07
 7.01593e-07
 6.17006e-07
 5.44450e-07
 4.82362e-07
 4.29204e-07
 3.83591e-07
 3.44320e-07
 3.10379e-07
 2.80920e-07
 2.55240e-07
 2.32756e-07
 2.12988e-07
 1.95534e-07
 1.80062e-07
 1.66294e-07
 1.53997e-07
 1.42976e-07
 1.33064e-07
 1.06556e-06
 9.13050e-07
 7.85730e-07
 6.79971e-07
 5.92088e-07
 5.18807e-07
 4.57393e-07
 4.05623e-07
 3.61712e-07
 3.24236e-07
 2.92056e-07
 2.64262e-07
 2.40120e-07
 2.19041e-07
 2.00541e-07
 1.84229e-07
 1.69781e-07
 1.56930e-07
 1.45454e-07
 1.35168e-07
 1.23461e-06
 1.03171e-06
 8.70351e-07
 7.41318e-07
 6.37281e-07
 5.52609e-07
 4.83032e-07
 4.25323e-07
 3.77029e-07
 3.36274e-07
 3.01610e-07
 2.71913e-07
 2.46298e-07
 2.24066e-07
 2.04657e-07
 1.87622e-07
 1.72593e-07
 1.59274e-07
 1.47417e-07
 1.36819e-07
 1.40827e-06
 1.14769e-06
 9.49822e-07
 7.97086e-07
 6.77264e-07
 5.81827e-07
 5.04750e-07
 4.41712e-07
 3.89563e-07
 3.45975e-07
 3.09200e-07
 2.77908e-07
 2.51075e-07
 2.27901e-07
 2.07757e-07
 1.90143e-07
 1.74655e-07
 1.60968e-07
 1.48816e-07
 1.37978e-07
 1.56929e-06
 1.24980e-06
 1.01699e-06
 8.42659e-07
 7.09011e-07
 6.04446e-07
 5.21179e-07
 4.53843e-07
 3.98650e-07
 3.52867e-07
 3.14483e-07
 2.81995e-07
 2.54262e-07
 2.30403e-07
 2.09733e-07
 1.91710e-07
 1.75903e-07
 1.61964e-07
 1.49612e-07
 1.38615e-07
 1.69432e-06
 1.32486e-06
 1.06416e-06
 8.73411e-07
 7.29652e-07
 6.18630e-07
 5.31113e-07
 4.60908e-07
 4.03735e-07
 3.56560e-07
 3.17182e-07
 2.83975e-07
 2.55714e-07
 2.31465e-07
 2.10504e-07
 1.92262e-07
 1.76289e-07
 1.62225e-07
 1.49777e-07
 1.38707e-07
 1.75941e-06
 1.36067e-06
 1.08477e-06
 8.85602e-07
 7.36964e-07
 6.23010e-07
 5.33683e-07
 4.62338e-07
 4.04438e-07
 3.56795e-07
 3.17118e-07
 2.83720e-07
 2.55341e-07
 2.31021e-07
 2.10022e-07
 1.91763e-07
 1.75788e-07
 1.61731e-07
 1.49296e-07
 1.38243e-07
 1.74897e-06
 1.35000e-06
 1.07515e-06
 8.77269e-07
 7.29839e-07
 6.16935e-07
 5.28493e-07
 4.57887e-07
 4.00602e-07
 3.53473e-07
 3.14224e-07
 2.81187e-07
 2.53113e-07
 2.29052e-07
 2.08274e-07
 1.90205e-07
 1.74394e-07
 1.60478e-07
 1.48167e-07
 1.37221e-07
 1.66318e-06
 1.29333e-06
 1.03574e-06
 8.48758e-07
 7.08543e-07
 6.00608e-07
 5.15700e-07
 4.47676e-07
 3.92322e-07
 3.46665e-07
 3.08559e-07
 2.76423e-07
 2.49068e-07
 2.25589e-07
 2.05285e-07
 1.87608e-07
 1.72123e-07
 1.58482e-07
 1.46402e-07
 1.35653e-07
 1.51790e-06
 1.19868e-06
 9.70966e-07
 8.02657e-07
 6.74673e-07
 5.75057e-07
 4.95989e-07
 4.32176e-07
 3.79930e-07
 3.36613e-07
 3.00301e-07
 2.69560e-07
 2.43307e-07
 2.20709e-07
 2.01117e-07
 1.84022e-07
 1.69016e-07
 1.55772e-07
 1.44026e-07
 1.33559e-07
 1.33711e-06
 1.07867e-06
 8.87902e-07
 7.43171e-07
 6.30839e-07
 5.41964e-07
 4.70480e-07
 4.12155e-07
 3.63965e-07
 3.23704e-07
 2.89731e-07
 2.60810e-07
 2.35990e-07
 2.14534e-07
 1.95864e-07
 1.79519e-07
 1.65130e-07
 1.52398e-07
 1.41078e-07
 1.30970e-07
 1.14434e-06
 9.46680e-07
 7.94512e-07
 6.75212e-07
 5.80178e-07
 5.03396e-07
 4.40572e-07
 3.88581e-07
 3.45112e-07
 3.08430e-07
 2.77213e-07
 2.50442e-07
 2.27320e-07
 2.07222e-07
 1.89648e-07
 1.74196e-07
 1.60542e-07
 1.48418e-07
 1.37607e-07
 1.27927e-07
 9.57623e-07
 8.14141e-07
 6.98104e-07
 6.03549e-07
 5.25865e-07
 4.61510e-07
 4.07759e-07
 3.62511e-07
 3.24133e-07
 2.91350e-07
 2.63160e-07
 2.38767e-07
 2.17536e-07
 1.98956e-07
 1.82612e-07
 1.68166e-07
 1.55340e-07
 1.43905e-07
 1.33670e-07
 1.24475e-07
 7.88278e-07
 6.89221e-07
 6.04432e-07
 5.32208e-07
 4.70731e-07
 4.18315e-07
 3.73485e-07
 3.34992e-07
 3.01796e-07
 2.73036e-07
 2.48003e-07
 2.26115e-07
 2.06890e-07
 1.89932e-07
 1.74909e-07
 1.61550e-07
 1.49623e-07
 1.38938e-07
 1.29332e-07
 1.20668e-07
 6.41652e-07
 5.76762e-07
 5.17400e-07
 4.64192e-07
 4.17039e-07
 3.75504e-07
 3.39015e-07
 3.06977e-07
 2.78823e-07
 2.54037e-07
 2.32166e-07
 2.12813e-07
 1.95639e-07
 1.80351e-07
 1.66701e-07
 1.54476e-07
 1.43495e-07
 1.33601e-07
 1.24661e-07
 1.16561e-07
 5.18766e-07
 4.78851e-07
 4.39200e-07
 4.01450e-07
 3.66407e-07
 3.34377e-07
 3.05378e-07
 2.79273e-07
 2.55845e-07
 2.34849e-07
 2.16036e-07
 1.99168e-07
 1.84026e-07
 1.70410e-07
 1.58145e-07
 1.47073e-07
 1.37058e-07
 1.27977e-07
 1.19726e-07
 1.12213e-07
 4.18029e-07
 3.95628e-07
 3.70665e-07
 3.45016e-07
 3.19847e-07
 2.95835e-07
 2.73339e-07
 2.52513e-07
 2.33381e-07
 2.15893e-07
 1.99957e-07
 1.85458e-07
 1.72277e-07
 1.60292e-07
 1.49390e-07
 1.39462e-07
 1.30413e-07
 1.22151e-07
 1.14598e-07
 1.07682e-07
 3.36604e-07
 3.26059e-07
 3.11688e-07
 2.95220e-07
 2.77861e-07
 2.60418e-07
 2.43412e-07
 2.27158e-07
 2.11830e-07
 1.97508e-07
 1.84212e-07
 1.71920e-07
 1.60588e-07
 1.50159e-07
 1.40571e-07
 1.31757e-07
 1.23654e-07
 1.16202e-07
 1.09342e-07
 1.03022e-07
